l -t 0 -s 4 -d 5 -S DLABEL -l "Bottleneck-Link" -L ""
l -t 0 -s 5 -d 4 -S DLABEL -l "Bottleneck-Link" -L ""
V -t * -v 1.0a5 -a 0
A -t * -n 1 -p 0 -o 0x7fffffff -c 30 -a 1
A -t * -h 1 -m 1073741823 -s 0
c -t * -i 1 -n Green
c -t * -i 2 -n Blue
n -t * -a 4 -s 4 -S UP -v circle -c black -i black
n -t * -a 0 -s 0 -S UP -v circle -c black -i black
n -t * -a 5 -s 5 -S UP -v circle -c black -i black
n -t * -a 1 -s 1 -S UP -v circle -c black -i black
n -t * -a 2 -s 2 -S UP -v circle -c black -i black
n -t * -a 3 -s 3 -S UP -v circle -c black -i black
l -t * -s 0 -d 4 -S UP -r 10000000 -D 0.01 -c black -o right-down
l -t * -s 1 -d 4 -S UP -r 10000000 -D 0.01 -c black -o right-up
l -t * -s 4 -d 5 -S UP -r 5000000 -D 0.02 -c black -o right
l -t * -s 5 -d 2 -S UP -r 10000000 -D 0.01 -c black -o right-up
l -t * -s 5 -d 3 -S UP -r 10000000 -D 0.01 -c black -o right-down
q -t * -s 5 -d 4 -a 0.5
q -t * -s 4 -d 5 -a 0.5
+ -t 0.1 -s 1 -d 4 -p cbr -e 1000 -c 2 -i 0 -a 2 -x {1.0 3.0 0 ------- null}
- -t 0.1 -s 1 -d 4 -p cbr -e 1000 -c 2 -i 0 -a 2 -x {1.0 3.0 0 ------- null}
h -t 0.1 -s 1 -d 4 -p cbr -e 1000 -c 2 -i 0 -a 2 -x {1.0 3.0 -1 ------- null}
+ -t 0.108 -s 1 -d 4 -p cbr -e 1000 -c 2 -i 1 -a 2 -x {1.0 3.0 1 ------- null}
- -t 0.108 -s 1 -d 4 -p cbr -e 1000 -c 2 -i 1 -a 2 -x {1.0 3.0 1 ------- null}
h -t 0.108 -s 1 -d 4 -p cbr -e 1000 -c 2 -i 1 -a 2 -x {1.0 3.0 -1 ------- null}
r -t 0.1108 -s 1 -d 4 -p cbr -e 1000 -c 2 -i 0 -a 2 -x {1.0 3.0 0 ------- null}
+ -t 0.1108 -s 4 -d 5 -p cbr -e 1000 -c 2 -i 0 -a 2 -x {1.0 3.0 0 ------- null}
- -t 0.1108 -s 4 -d 5 -p cbr -e 1000 -c 2 -i 0 -a 2 -x {1.0 3.0 0 ------- null}
h -t 0.1108 -s 4 -d 5 -p cbr -e 1000 -c 2 -i 0 -a 2 -x {1.0 3.0 -1 ------- null}
+ -t 0.116 -s 1 -d 4 -p cbr -e 1000 -c 2 -i 2 -a 2 -x {1.0 3.0 2 ------- null}
- -t 0.116 -s 1 -d 4 -p cbr -e 1000 -c 2 -i 2 -a 2 -x {1.0 3.0 2 ------- null}
h -t 0.116 -s 1 -d 4 -p cbr -e 1000 -c 2 -i 2 -a 2 -x {1.0 3.0 -1 ------- null}
r -t 0.1188 -s 1 -d 4 -p cbr -e 1000 -c 2 -i 1 -a 2 -x {1.0 3.0 1 ------- null}
+ -t 0.1188 -s 4 -d 5 -p cbr -e 1000 -c 2 -i 1 -a 2 -x {1.0 3.0 1 ------- null}
- -t 0.1188 -s 4 -d 5 -p cbr -e 1000 -c 2 -i 1 -a 2 -x {1.0 3.0 1 ------- null}
h -t 0.1188 -s 4 -d 5 -p cbr -e 1000 -c 2 -i 1 -a 2 -x {1.0 3.0 -1 ------- null}
+ -t 0.124 -s 1 -d 4 -p cbr -e 1000 -c 2 -i 3 -a 2 -x {1.0 3.0 3 ------- null}
- -t 0.124 -s 1 -d 4 -p cbr -e 1000 -c 2 -i 3 -a 2 -x {1.0 3.0 3 ------- null}
h -t 0.124 -s 1 -d 4 -p cbr -e 1000 -c 2 -i 3 -a 2 -x {1.0 3.0 -1 ------- null}
r -t 0.1268 -s 1 -d 4 -p cbr -e 1000 -c 2 -i 2 -a 2 -x {1.0 3.0 2 ------- null}
+ -t 0.1268 -s 4 -d 5 -p cbr -e 1000 -c 2 -i 2 -a 2 -x {1.0 3.0 2 ------- null}
- -t 0.1268 -s 4 -d 5 -p cbr -e 1000 -c 2 -i 2 -a 2 -x {1.0 3.0 2 ------- null}
h -t 0.1268 -s 4 -d 5 -p cbr -e 1000 -c 2 -i 2 -a 2 -x {1.0 3.0 -1 ------- null}
+ -t 0.132 -s 1 -d 4 -p cbr -e 1000 -c 2 -i 4 -a 2 -x {1.0 3.0 4 ------- null}
- -t 0.132 -s 1 -d 4 -p cbr -e 1000 -c 2 -i 4 -a 2 -x {1.0 3.0 4 ------- null}
h -t 0.132 -s 1 -d 4 -p cbr -e 1000 -c 2 -i 4 -a 2 -x {1.0 3.0 -1 ------- null}
r -t 0.1324 -s 4 -d 5 -p cbr -e 1000 -c 2 -i 0 -a 2 -x {1.0 3.0 0 ------- null}
+ -t 0.1324 -s 5 -d 3 -p cbr -e 1000 -c 2 -i 0 -a 2 -x {1.0 3.0 0 ------- null}
- -t 0.1324 -s 5 -d 3 -p cbr -e 1000 -c 2 -i 0 -a 2 -x {1.0 3.0 0 ------- null}
h -t 0.1324 -s 5 -d 3 -p cbr -e 1000 -c 2 -i 0 -a 2 -x {1.0 3.0 -1 ------- null}
r -t 0.1348 -s 1 -d 4 -p cbr -e 1000 -c 2 -i 3 -a 2 -x {1.0 3.0 3 ------- null}
+ -t 0.1348 -s 4 -d 5 -p cbr -e 1000 -c 2 -i 3 -a 2 -x {1.0 3.0 3 ------- null}
- -t 0.1348 -s 4 -d 5 -p cbr -e 1000 -c 2 -i 3 -a 2 -x {1.0 3.0 3 ------- null}
h -t 0.1348 -s 4 -d 5 -p cbr -e 1000 -c 2 -i 3 -a 2 -x {1.0 3.0 -1 ------- null}
+ -t 0.14 -s 1 -d 4 -p cbr -e 1000 -c 2 -i 5 -a 2 -x {1.0 3.0 5 ------- null}
- -t 0.14 -s 1 -d 4 -p cbr -e 1000 -c 2 -i 5 -a 2 -x {1.0 3.0 5 ------- null}
h -t 0.14 -s 1 -d 4 -p cbr -e 1000 -c 2 -i 5 -a 2 -x {1.0 3.0 -1 ------- null}
r -t 0.1404 -s 4 -d 5 -p cbr -e 1000 -c 2 -i 1 -a 2 -x {1.0 3.0 1 ------- null}
+ -t 0.1404 -s 5 -d 3 -p cbr -e 1000 -c 2 -i 1 -a 2 -x {1.0 3.0 1 ------- null}
- -t 0.1404 -s 5 -d 3 -p cbr -e 1000 -c 2 -i 1 -a 2 -x {1.0 3.0 1 ------- null}
h -t 0.1404 -s 5 -d 3 -p cbr -e 1000 -c 2 -i 1 -a 2 -x {1.0 3.0 -1 ------- null}
r -t 0.1428 -s 1 -d 4 -p cbr -e 1000 -c 2 -i 4 -a 2 -x {1.0 3.0 4 ------- null}
+ -t 0.1428 -s 4 -d 5 -p cbr -e 1000 -c 2 -i 4 -a 2 -x {1.0 3.0 4 ------- null}
- -t 0.1428 -s 4 -d 5 -p cbr -e 1000 -c 2 -i 4 -a 2 -x {1.0 3.0 4 ------- null}
h -t 0.1428 -s 4 -d 5 -p cbr -e 1000 -c 2 -i 4 -a 2 -x {1.0 3.0 -1 ------- null}
r -t 0.1432 -s 5 -d 3 -p cbr -e 1000 -c 2 -i 0 -a 2 -x {1.0 3.0 0 ------- null}
+ -t 0.148 -s 1 -d 4 -p cbr -e 1000 -c 2 -i 6 -a 2 -x {1.0 3.0 6 ------- null}
- -t 0.148 -s 1 -d 4 -p cbr -e 1000 -c 2 -i 6 -a 2 -x {1.0 3.0 6 ------- null}
h -t 0.148 -s 1 -d 4 -p cbr -e 1000 -c 2 -i 6 -a 2 -x {1.0 3.0 -1 ------- null}
r -t 0.1484 -s 4 -d 5 -p cbr -e 1000 -c 2 -i 2 -a 2 -x {1.0 3.0 2 ------- null}
+ -t 0.1484 -s 5 -d 3 -p cbr -e 1000 -c 2 -i 2 -a 2 -x {1.0 3.0 2 ------- null}
- -t 0.1484 -s 5 -d 3 -p cbr -e 1000 -c 2 -i 2 -a 2 -x {1.0 3.0 2 ------- null}
h -t 0.1484 -s 5 -d 3 -p cbr -e 1000 -c 2 -i 2 -a 2 -x {1.0 3.0 -1 ------- null}
r -t 0.1508 -s 1 -d 4 -p cbr -e 1000 -c 2 -i 5 -a 2 -x {1.0 3.0 5 ------- null}
+ -t 0.1508 -s 4 -d 5 -p cbr -e 1000 -c 2 -i 5 -a 2 -x {1.0 3.0 5 ------- null}
- -t 0.1508 -s 4 -d 5 -p cbr -e 1000 -c 2 -i 5 -a 2 -x {1.0 3.0 5 ------- null}
h -t 0.1508 -s 4 -d 5 -p cbr -e 1000 -c 2 -i 5 -a 2 -x {1.0 3.0 -1 ------- null}
r -t 0.1512 -s 5 -d 3 -p cbr -e 1000 -c 2 -i 1 -a 2 -x {1.0 3.0 1 ------- null}
+ -t 0.156 -s 1 -d 4 -p cbr -e 1000 -c 2 -i 7 -a 2 -x {1.0 3.0 7 ------- null}
- -t 0.156 -s 1 -d 4 -p cbr -e 1000 -c 2 -i 7 -a 2 -x {1.0 3.0 7 ------- null}
h -t 0.156 -s 1 -d 4 -p cbr -e 1000 -c 2 -i 7 -a 2 -x {1.0 3.0 -1 ------- null}
r -t 0.1564 -s 4 -d 5 -p cbr -e 1000 -c 2 -i 3 -a 2 -x {1.0 3.0 3 ------- null}
+ -t 0.1564 -s 5 -d 3 -p cbr -e 1000 -c 2 -i 3 -a 2 -x {1.0 3.0 3 ------- null}
- -t 0.1564 -s 5 -d 3 -p cbr -e 1000 -c 2 -i 3 -a 2 -x {1.0 3.0 3 ------- null}
h -t 0.1564 -s 5 -d 3 -p cbr -e 1000 -c 2 -i 3 -a 2 -x {1.0 3.0 -1 ------- null}
r -t 0.1588 -s 1 -d 4 -p cbr -e 1000 -c 2 -i 6 -a 2 -x {1.0 3.0 6 ------- null}
+ -t 0.1588 -s 4 -d 5 -p cbr -e 1000 -c 2 -i 6 -a 2 -x {1.0 3.0 6 ------- null}
- -t 0.1588 -s 4 -d 5 -p cbr -e 1000 -c 2 -i 6 -a 2 -x {1.0 3.0 6 ------- null}
h -t 0.1588 -s 4 -d 5 -p cbr -e 1000 -c 2 -i 6 -a 2 -x {1.0 3.0 -1 ------- null}
r -t 0.1592 -s 5 -d 3 -p cbr -e 1000 -c 2 -i 2 -a 2 -x {1.0 3.0 2 ------- null}
+ -t 0.164 -s 1 -d 4 -p cbr -e 1000 -c 2 -i 8 -a 2 -x {1.0 3.0 8 ------- null}
- -t 0.164 -s 1 -d 4 -p cbr -e 1000 -c 2 -i 8 -a 2 -x {1.0 3.0 8 ------- null}
h -t 0.164 -s 1 -d 4 -p cbr -e 1000 -c 2 -i 8 -a 2 -x {1.0 3.0 -1 ------- null}
r -t 0.1644 -s 4 -d 5 -p cbr -e 1000 -c 2 -i 4 -a 2 -x {1.0 3.0 4 ------- null}
+ -t 0.1644 -s 5 -d 3 -p cbr -e 1000 -c 2 -i 4 -a 2 -x {1.0 3.0 4 ------- null}
- -t 0.1644 -s 5 -d 3 -p cbr -e 1000 -c 2 -i 4 -a 2 -x {1.0 3.0 4 ------- null}
h -t 0.1644 -s 5 -d 3 -p cbr -e 1000 -c 2 -i 4 -a 2 -x {1.0 3.0 -1 ------- null}
r -t 0.1668 -s 1 -d 4 -p cbr -e 1000 -c 2 -i 7 -a 2 -x {1.0 3.0 7 ------- null}
+ -t 0.1668 -s 4 -d 5 -p cbr -e 1000 -c 2 -i 7 -a 2 -x {1.0 3.0 7 ------- null}
- -t 0.1668 -s 4 -d 5 -p cbr -e 1000 -c 2 -i 7 -a 2 -x {1.0 3.0 7 ------- null}
h -t 0.1668 -s 4 -d 5 -p cbr -e 1000 -c 2 -i 7 -a 2 -x {1.0 3.0 -1 ------- null}
r -t 0.1672 -s 5 -d 3 -p cbr -e 1000 -c 2 -i 3 -a 2 -x {1.0 3.0 3 ------- null}
+ -t 0.172 -s 1 -d 4 -p cbr -e 1000 -c 2 -i 9 -a 2 -x {1.0 3.0 9 ------- null}
- -t 0.172 -s 1 -d 4 -p cbr -e 1000 -c 2 -i 9 -a 2 -x {1.0 3.0 9 ------- null}
h -t 0.172 -s 1 -d 4 -p cbr -e 1000 -c 2 -i 9 -a 2 -x {1.0 3.0 -1 ------- null}
r -t 0.1724 -s 4 -d 5 -p cbr -e 1000 -c 2 -i 5 -a 2 -x {1.0 3.0 5 ------- null}
+ -t 0.1724 -s 5 -d 3 -p cbr -e 1000 -c 2 -i 5 -a 2 -x {1.0 3.0 5 ------- null}
- -t 0.1724 -s 5 -d 3 -p cbr -e 1000 -c 2 -i 5 -a 2 -x {1.0 3.0 5 ------- null}
h -t 0.1724 -s 5 -d 3 -p cbr -e 1000 -c 2 -i 5 -a 2 -x {1.0 3.0 -1 ------- null}
r -t 0.1748 -s 1 -d 4 -p cbr -e 1000 -c 2 -i 8 -a 2 -x {1.0 3.0 8 ------- null}
+ -t 0.1748 -s 4 -d 5 -p cbr -e 1000 -c 2 -i 8 -a 2 -x {1.0 3.0 8 ------- null}
- -t 0.1748 -s 4 -d 5 -p cbr -e 1000 -c 2 -i 8 -a 2 -x {1.0 3.0 8 ------- null}
h -t 0.1748 -s 4 -d 5 -p cbr -e 1000 -c 2 -i 8 -a 2 -x {1.0 3.0 -1 ------- null}
r -t 0.1752 -s 5 -d 3 -p cbr -e 1000 -c 2 -i 4 -a 2 -x {1.0 3.0 4 ------- null}
+ -t 0.18 -s 1 -d 4 -p cbr -e 1000 -c 2 -i 10 -a 2 -x {1.0 3.0 10 ------- null}
- -t 0.18 -s 1 -d 4 -p cbr -e 1000 -c 2 -i 10 -a 2 -x {1.0 3.0 10 ------- null}
h -t 0.18 -s 1 -d 4 -p cbr -e 1000 -c 2 -i 10 -a 2 -x {1.0 3.0 -1 ------- null}
r -t 0.1804 -s 4 -d 5 -p cbr -e 1000 -c 2 -i 6 -a 2 -x {1.0 3.0 6 ------- null}
+ -t 0.1804 -s 5 -d 3 -p cbr -e 1000 -c 2 -i 6 -a 2 -x {1.0 3.0 6 ------- null}
- -t 0.1804 -s 5 -d 3 -p cbr -e 1000 -c 2 -i 6 -a 2 -x {1.0 3.0 6 ------- null}
h -t 0.1804 -s 5 -d 3 -p cbr -e 1000 -c 2 -i 6 -a 2 -x {1.0 3.0 -1 ------- null}
r -t 0.1828 -s 1 -d 4 -p cbr -e 1000 -c 2 -i 9 -a 2 -x {1.0 3.0 9 ------- null}
+ -t 0.1828 -s 4 -d 5 -p cbr -e 1000 -c 2 -i 9 -a 2 -x {1.0 3.0 9 ------- null}
- -t 0.1828 -s 4 -d 5 -p cbr -e 1000 -c 2 -i 9 -a 2 -x {1.0 3.0 9 ------- null}
h -t 0.1828 -s 4 -d 5 -p cbr -e 1000 -c 2 -i 9 -a 2 -x {1.0 3.0 -1 ------- null}
r -t 0.1832 -s 5 -d 3 -p cbr -e 1000 -c 2 -i 5 -a 2 -x {1.0 3.0 5 ------- null}
+ -t 0.188 -s 1 -d 4 -p cbr -e 1000 -c 2 -i 11 -a 2 -x {1.0 3.0 11 ------- null}
- -t 0.188 -s 1 -d 4 -p cbr -e 1000 -c 2 -i 11 -a 2 -x {1.0 3.0 11 ------- null}
h -t 0.188 -s 1 -d 4 -p cbr -e 1000 -c 2 -i 11 -a 2 -x {1.0 3.0 -1 ------- null}
r -t 0.1884 -s 4 -d 5 -p cbr -e 1000 -c 2 -i 7 -a 2 -x {1.0 3.0 7 ------- null}
+ -t 0.1884 -s 5 -d 3 -p cbr -e 1000 -c 2 -i 7 -a 2 -x {1.0 3.0 7 ------- null}
- -t 0.1884 -s 5 -d 3 -p cbr -e 1000 -c 2 -i 7 -a 2 -x {1.0 3.0 7 ------- null}
h -t 0.1884 -s 5 -d 3 -p cbr -e 1000 -c 2 -i 7 -a 2 -x {1.0 3.0 -1 ------- null}
r -t 0.1908 -s 1 -d 4 -p cbr -e 1000 -c 2 -i 10 -a 2 -x {1.0 3.0 10 ------- null}
+ -t 0.1908 -s 4 -d 5 -p cbr -e 1000 -c 2 -i 10 -a 2 -x {1.0 3.0 10 ------- null}
- -t 0.1908 -s 4 -d 5 -p cbr -e 1000 -c 2 -i 10 -a 2 -x {1.0 3.0 10 ------- null}
h -t 0.1908 -s 4 -d 5 -p cbr -e 1000 -c 2 -i 10 -a 2 -x {1.0 3.0 -1 ------- null}
r -t 0.1912 -s 5 -d 3 -p cbr -e 1000 -c 2 -i 6 -a 2 -x {1.0 3.0 6 ------- null}
+ -t 0.196 -s 1 -d 4 -p cbr -e 1000 -c 2 -i 12 -a 2 -x {1.0 3.0 12 ------- null}
- -t 0.196 -s 1 -d 4 -p cbr -e 1000 -c 2 -i 12 -a 2 -x {1.0 3.0 12 ------- null}
h -t 0.196 -s 1 -d 4 -p cbr -e 1000 -c 2 -i 12 -a 2 -x {1.0 3.0 -1 ------- null}
r -t 0.1964 -s 4 -d 5 -p cbr -e 1000 -c 2 -i 8 -a 2 -x {1.0 3.0 8 ------- null}
+ -t 0.1964 -s 5 -d 3 -p cbr -e 1000 -c 2 -i 8 -a 2 -x {1.0 3.0 8 ------- null}
- -t 0.1964 -s 5 -d 3 -p cbr -e 1000 -c 2 -i 8 -a 2 -x {1.0 3.0 8 ------- null}
h -t 0.1964 -s 5 -d 3 -p cbr -e 1000 -c 2 -i 8 -a 2 -x {1.0 3.0 -1 ------- null}
r -t 0.1988 -s 1 -d 4 -p cbr -e 1000 -c 2 -i 11 -a 2 -x {1.0 3.0 11 ------- null}
+ -t 0.1988 -s 4 -d 5 -p cbr -e 1000 -c 2 -i 11 -a 2 -x {1.0 3.0 11 ------- null}
- -t 0.1988 -s 4 -d 5 -p cbr -e 1000 -c 2 -i 11 -a 2 -x {1.0 3.0 11 ------- null}
h -t 0.1988 -s 4 -d 5 -p cbr -e 1000 -c 2 -i 11 -a 2 -x {1.0 3.0 -1 ------- null}
r -t 0.1992 -s 5 -d 3 -p cbr -e 1000 -c 2 -i 7 -a 2 -x {1.0 3.0 7 ------- null}
+ -t 0.204 -s 1 -d 4 -p cbr -e 1000 -c 2 -i 13 -a 2 -x {1.0 3.0 13 ------- null}
- -t 0.204 -s 1 -d 4 -p cbr -e 1000 -c 2 -i 13 -a 2 -x {1.0 3.0 13 ------- null}
h -t 0.204 -s 1 -d 4 -p cbr -e 1000 -c 2 -i 13 -a 2 -x {1.0 3.0 -1 ------- null}
r -t 0.2044 -s 4 -d 5 -p cbr -e 1000 -c 2 -i 9 -a 2 -x {1.0 3.0 9 ------- null}
+ -t 0.2044 -s 5 -d 3 -p cbr -e 1000 -c 2 -i 9 -a 2 -x {1.0 3.0 9 ------- null}
- -t 0.2044 -s 5 -d 3 -p cbr -e 1000 -c 2 -i 9 -a 2 -x {1.0 3.0 9 ------- null}
h -t 0.2044 -s 5 -d 3 -p cbr -e 1000 -c 2 -i 9 -a 2 -x {1.0 3.0 -1 ------- null}
r -t 0.2068 -s 1 -d 4 -p cbr -e 1000 -c 2 -i 12 -a 2 -x {1.0 3.0 12 ------- null}
+ -t 0.2068 -s 4 -d 5 -p cbr -e 1000 -c 2 -i 12 -a 2 -x {1.0 3.0 12 ------- null}
- -t 0.2068 -s 4 -d 5 -p cbr -e 1000 -c 2 -i 12 -a 2 -x {1.0 3.0 12 ------- null}
h -t 0.2068 -s 4 -d 5 -p cbr -e 1000 -c 2 -i 12 -a 2 -x {1.0 3.0 -1 ------- null}
r -t 0.2072 -s 5 -d 3 -p cbr -e 1000 -c 2 -i 8 -a 2 -x {1.0 3.0 8 ------- null}
+ -t 0.212 -s 1 -d 4 -p cbr -e 1000 -c 2 -i 14 -a 2 -x {1.0 3.0 14 ------- null}
- -t 0.212 -s 1 -d 4 -p cbr -e 1000 -c 2 -i 14 -a 2 -x {1.0 3.0 14 ------- null}
h -t 0.212 -s 1 -d 4 -p cbr -e 1000 -c 2 -i 14 -a 2 -x {1.0 3.0 -1 ------- null}
r -t 0.2124 -s 4 -d 5 -p cbr -e 1000 -c 2 -i 10 -a 2 -x {1.0 3.0 10 ------- null}
+ -t 0.2124 -s 5 -d 3 -p cbr -e 1000 -c 2 -i 10 -a 2 -x {1.0 3.0 10 ------- null}
- -t 0.2124 -s 5 -d 3 -p cbr -e 1000 -c 2 -i 10 -a 2 -x {1.0 3.0 10 ------- null}
h -t 0.2124 -s 5 -d 3 -p cbr -e 1000 -c 2 -i 10 -a 2 -x {1.0 3.0 -1 ------- null}
r -t 0.2148 -s 1 -d 4 -p cbr -e 1000 -c 2 -i 13 -a 2 -x {1.0 3.0 13 ------- null}
+ -t 0.2148 -s 4 -d 5 -p cbr -e 1000 -c 2 -i 13 -a 2 -x {1.0 3.0 13 ------- null}
- -t 0.2148 -s 4 -d 5 -p cbr -e 1000 -c 2 -i 13 -a 2 -x {1.0 3.0 13 ------- null}
h -t 0.2148 -s 4 -d 5 -p cbr -e 1000 -c 2 -i 13 -a 2 -x {1.0 3.0 -1 ------- null}
r -t 0.2152 -s 5 -d 3 -p cbr -e 1000 -c 2 -i 9 -a 2 -x {1.0 3.0 9 ------- null}
+ -t 0.22 -s 1 -d 4 -p cbr -e 1000 -c 2 -i 15 -a 2 -x {1.0 3.0 15 ------- null}
- -t 0.22 -s 1 -d 4 -p cbr -e 1000 -c 2 -i 15 -a 2 -x {1.0 3.0 15 ------- null}
h -t 0.22 -s 1 -d 4 -p cbr -e 1000 -c 2 -i 15 -a 2 -x {1.0 3.0 -1 ------- null}
r -t 0.2204 -s 4 -d 5 -p cbr -e 1000 -c 2 -i 11 -a 2 -x {1.0 3.0 11 ------- null}
+ -t 0.2204 -s 5 -d 3 -p cbr -e 1000 -c 2 -i 11 -a 2 -x {1.0 3.0 11 ------- null}
- -t 0.2204 -s 5 -d 3 -p cbr -e 1000 -c 2 -i 11 -a 2 -x {1.0 3.0 11 ------- null}
h -t 0.2204 -s 5 -d 3 -p cbr -e 1000 -c 2 -i 11 -a 2 -x {1.0 3.0 -1 ------- null}
r -t 0.2228 -s 1 -d 4 -p cbr -e 1000 -c 2 -i 14 -a 2 -x {1.0 3.0 14 ------- null}
+ -t 0.2228 -s 4 -d 5 -p cbr -e 1000 -c 2 -i 14 -a 2 -x {1.0 3.0 14 ------- null}
- -t 0.2228 -s 4 -d 5 -p cbr -e 1000 -c 2 -i 14 -a 2 -x {1.0 3.0 14 ------- null}
h -t 0.2228 -s 4 -d 5 -p cbr -e 1000 -c 2 -i 14 -a 2 -x {1.0 3.0 -1 ------- null}
r -t 0.2232 -s 5 -d 3 -p cbr -e 1000 -c 2 -i 10 -a 2 -x {1.0 3.0 10 ------- null}
+ -t 0.228 -s 1 -d 4 -p cbr -e 1000 -c 2 -i 16 -a 2 -x {1.0 3.0 16 ------- null}
- -t 0.228 -s 1 -d 4 -p cbr -e 1000 -c 2 -i 16 -a 2 -x {1.0 3.0 16 ------- null}
h -t 0.228 -s 1 -d 4 -p cbr -e 1000 -c 2 -i 16 -a 2 -x {1.0 3.0 -1 ------- null}
r -t 0.2284 -s 4 -d 5 -p cbr -e 1000 -c 2 -i 12 -a 2 -x {1.0 3.0 12 ------- null}
+ -t 0.2284 -s 5 -d 3 -p cbr -e 1000 -c 2 -i 12 -a 2 -x {1.0 3.0 12 ------- null}
- -t 0.2284 -s 5 -d 3 -p cbr -e 1000 -c 2 -i 12 -a 2 -x {1.0 3.0 12 ------- null}
h -t 0.2284 -s 5 -d 3 -p cbr -e 1000 -c 2 -i 12 -a 2 -x {1.0 3.0 -1 ------- null}
r -t 0.2308 -s 1 -d 4 -p cbr -e 1000 -c 2 -i 15 -a 2 -x {1.0 3.0 15 ------- null}
+ -t 0.2308 -s 4 -d 5 -p cbr -e 1000 -c 2 -i 15 -a 2 -x {1.0 3.0 15 ------- null}
- -t 0.2308 -s 4 -d 5 -p cbr -e 1000 -c 2 -i 15 -a 2 -x {1.0 3.0 15 ------- null}
h -t 0.2308 -s 4 -d 5 -p cbr -e 1000 -c 2 -i 15 -a 2 -x {1.0 3.0 -1 ------- null}
r -t 0.2312 -s 5 -d 3 -p cbr -e 1000 -c 2 -i 11 -a 2 -x {1.0 3.0 11 ------- null}
+ -t 0.236 -s 1 -d 4 -p cbr -e 1000 -c 2 -i 17 -a 2 -x {1.0 3.0 17 ------- null}
- -t 0.236 -s 1 -d 4 -p cbr -e 1000 -c 2 -i 17 -a 2 -x {1.0 3.0 17 ------- null}
h -t 0.236 -s 1 -d 4 -p cbr -e 1000 -c 2 -i 17 -a 2 -x {1.0 3.0 -1 ------- null}
r -t 0.2364 -s 4 -d 5 -p cbr -e 1000 -c 2 -i 13 -a 2 -x {1.0 3.0 13 ------- null}
+ -t 0.2364 -s 5 -d 3 -p cbr -e 1000 -c 2 -i 13 -a 2 -x {1.0 3.0 13 ------- null}
- -t 0.2364 -s 5 -d 3 -p cbr -e 1000 -c 2 -i 13 -a 2 -x {1.0 3.0 13 ------- null}
h -t 0.2364 -s 5 -d 3 -p cbr -e 1000 -c 2 -i 13 -a 2 -x {1.0 3.0 -1 ------- null}
r -t 0.2388 -s 1 -d 4 -p cbr -e 1000 -c 2 -i 16 -a 2 -x {1.0 3.0 16 ------- null}
+ -t 0.2388 -s 4 -d 5 -p cbr -e 1000 -c 2 -i 16 -a 2 -x {1.0 3.0 16 ------- null}
- -t 0.2388 -s 4 -d 5 -p cbr -e 1000 -c 2 -i 16 -a 2 -x {1.0 3.0 16 ------- null}
h -t 0.2388 -s 4 -d 5 -p cbr -e 1000 -c 2 -i 16 -a 2 -x {1.0 3.0 -1 ------- null}
r -t 0.2392 -s 5 -d 3 -p cbr -e 1000 -c 2 -i 12 -a 2 -x {1.0 3.0 12 ------- null}
+ -t 0.244 -s 1 -d 4 -p cbr -e 1000 -c 2 -i 18 -a 2 -x {1.0 3.0 18 ------- null}
- -t 0.244 -s 1 -d 4 -p cbr -e 1000 -c 2 -i 18 -a 2 -x {1.0 3.0 18 ------- null}
h -t 0.244 -s 1 -d 4 -p cbr -e 1000 -c 2 -i 18 -a 2 -x {1.0 3.0 -1 ------- null}
r -t 0.2444 -s 4 -d 5 -p cbr -e 1000 -c 2 -i 14 -a 2 -x {1.0 3.0 14 ------- null}
+ -t 0.2444 -s 5 -d 3 -p cbr -e 1000 -c 2 -i 14 -a 2 -x {1.0 3.0 14 ------- null}
- -t 0.2444 -s 5 -d 3 -p cbr -e 1000 -c 2 -i 14 -a 2 -x {1.0 3.0 14 ------- null}
h -t 0.2444 -s 5 -d 3 -p cbr -e 1000 -c 2 -i 14 -a 2 -x {1.0 3.0 -1 ------- null}
r -t 0.2468 -s 1 -d 4 -p cbr -e 1000 -c 2 -i 17 -a 2 -x {1.0 3.0 17 ------- null}
+ -t 0.2468 -s 4 -d 5 -p cbr -e 1000 -c 2 -i 17 -a 2 -x {1.0 3.0 17 ------- null}
- -t 0.2468 -s 4 -d 5 -p cbr -e 1000 -c 2 -i 17 -a 2 -x {1.0 3.0 17 ------- null}
h -t 0.2468 -s 4 -d 5 -p cbr -e 1000 -c 2 -i 17 -a 2 -x {1.0 3.0 -1 ------- null}
r -t 0.2472 -s 5 -d 3 -p cbr -e 1000 -c 2 -i 13 -a 2 -x {1.0 3.0 13 ------- null}
+ -t 0.252 -s 1 -d 4 -p cbr -e 1000 -c 2 -i 19 -a 2 -x {1.0 3.0 19 ------- null}
- -t 0.252 -s 1 -d 4 -p cbr -e 1000 -c 2 -i 19 -a 2 -x {1.0 3.0 19 ------- null}
h -t 0.252 -s 1 -d 4 -p cbr -e 1000 -c 2 -i 19 -a 2 -x {1.0 3.0 -1 ------- null}
r -t 0.2524 -s 4 -d 5 -p cbr -e 1000 -c 2 -i 15 -a 2 -x {1.0 3.0 15 ------- null}
+ -t 0.2524 -s 5 -d 3 -p cbr -e 1000 -c 2 -i 15 -a 2 -x {1.0 3.0 15 ------- null}
- -t 0.2524 -s 5 -d 3 -p cbr -e 1000 -c 2 -i 15 -a 2 -x {1.0 3.0 15 ------- null}
h -t 0.2524 -s 5 -d 3 -p cbr -e 1000 -c 2 -i 15 -a 2 -x {1.0 3.0 -1 ------- null}
r -t 0.2548 -s 1 -d 4 -p cbr -e 1000 -c 2 -i 18 -a 2 -x {1.0 3.0 18 ------- null}
+ -t 0.2548 -s 4 -d 5 -p cbr -e 1000 -c 2 -i 18 -a 2 -x {1.0 3.0 18 ------- null}
- -t 0.2548 -s 4 -d 5 -p cbr -e 1000 -c 2 -i 18 -a 2 -x {1.0 3.0 18 ------- null}
h -t 0.2548 -s 4 -d 5 -p cbr -e 1000 -c 2 -i 18 -a 2 -x {1.0 3.0 -1 ------- null}
r -t 0.2552 -s 5 -d 3 -p cbr -e 1000 -c 2 -i 14 -a 2 -x {1.0 3.0 14 ------- null}
+ -t 0.26 -s 1 -d 4 -p cbr -e 1000 -c 2 -i 20 -a 2 -x {1.0 3.0 20 ------- null}
- -t 0.26 -s 1 -d 4 -p cbr -e 1000 -c 2 -i 20 -a 2 -x {1.0 3.0 20 ------- null}
h -t 0.26 -s 1 -d 4 -p cbr -e 1000 -c 2 -i 20 -a 2 -x {1.0 3.0 -1 ------- null}
r -t 0.2604 -s 4 -d 5 -p cbr -e 1000 -c 2 -i 16 -a 2 -x {1.0 3.0 16 ------- null}
+ -t 0.2604 -s 5 -d 3 -p cbr -e 1000 -c 2 -i 16 -a 2 -x {1.0 3.0 16 ------- null}
- -t 0.2604 -s 5 -d 3 -p cbr -e 1000 -c 2 -i 16 -a 2 -x {1.0 3.0 16 ------- null}
h -t 0.2604 -s 5 -d 3 -p cbr -e 1000 -c 2 -i 16 -a 2 -x {1.0 3.0 -1 ------- null}
r -t 0.2628 -s 1 -d 4 -p cbr -e 1000 -c 2 -i 19 -a 2 -x {1.0 3.0 19 ------- null}
+ -t 0.2628 -s 4 -d 5 -p cbr -e 1000 -c 2 -i 19 -a 2 -x {1.0 3.0 19 ------- null}
- -t 0.2628 -s 4 -d 5 -p cbr -e 1000 -c 2 -i 19 -a 2 -x {1.0 3.0 19 ------- null}
h -t 0.2628 -s 4 -d 5 -p cbr -e 1000 -c 2 -i 19 -a 2 -x {1.0 3.0 -1 ------- null}
r -t 0.2632 -s 5 -d 3 -p cbr -e 1000 -c 2 -i 15 -a 2 -x {1.0 3.0 15 ------- null}
+ -t 0.268 -s 1 -d 4 -p cbr -e 1000 -c 2 -i 21 -a 2 -x {1.0 3.0 21 ------- null}
- -t 0.268 -s 1 -d 4 -p cbr -e 1000 -c 2 -i 21 -a 2 -x {1.0 3.0 21 ------- null}
h -t 0.268 -s 1 -d 4 -p cbr -e 1000 -c 2 -i 21 -a 2 -x {1.0 3.0 -1 ------- null}
r -t 0.2684 -s 4 -d 5 -p cbr -e 1000 -c 2 -i 17 -a 2 -x {1.0 3.0 17 ------- null}
+ -t 0.2684 -s 5 -d 3 -p cbr -e 1000 -c 2 -i 17 -a 2 -x {1.0 3.0 17 ------- null}
- -t 0.2684 -s 5 -d 3 -p cbr -e 1000 -c 2 -i 17 -a 2 -x {1.0 3.0 17 ------- null}
h -t 0.2684 -s 5 -d 3 -p cbr -e 1000 -c 2 -i 17 -a 2 -x {1.0 3.0 -1 ------- null}
r -t 0.2708 -s 1 -d 4 -p cbr -e 1000 -c 2 -i 20 -a 2 -x {1.0 3.0 20 ------- null}
+ -t 0.2708 -s 4 -d 5 -p cbr -e 1000 -c 2 -i 20 -a 2 -x {1.0 3.0 20 ------- null}
- -t 0.2708 -s 4 -d 5 -p cbr -e 1000 -c 2 -i 20 -a 2 -x {1.0 3.0 20 ------- null}
h -t 0.2708 -s 4 -d 5 -p cbr -e 1000 -c 2 -i 20 -a 2 -x {1.0 3.0 -1 ------- null}
r -t 0.2712 -s 5 -d 3 -p cbr -e 1000 -c 2 -i 16 -a 2 -x {1.0 3.0 16 ------- null}
+ -t 0.276 -s 1 -d 4 -p cbr -e 1000 -c 2 -i 22 -a 2 -x {1.0 3.0 22 ------- null}
- -t 0.276 -s 1 -d 4 -p cbr -e 1000 -c 2 -i 22 -a 2 -x {1.0 3.0 22 ------- null}
h -t 0.276 -s 1 -d 4 -p cbr -e 1000 -c 2 -i 22 -a 2 -x {1.0 3.0 -1 ------- null}
r -t 0.2764 -s 4 -d 5 -p cbr -e 1000 -c 2 -i 18 -a 2 -x {1.0 3.0 18 ------- null}
+ -t 0.2764 -s 5 -d 3 -p cbr -e 1000 -c 2 -i 18 -a 2 -x {1.0 3.0 18 ------- null}
- -t 0.2764 -s 5 -d 3 -p cbr -e 1000 -c 2 -i 18 -a 2 -x {1.0 3.0 18 ------- null}
h -t 0.2764 -s 5 -d 3 -p cbr -e 1000 -c 2 -i 18 -a 2 -x {1.0 3.0 -1 ------- null}
r -t 0.2788 -s 1 -d 4 -p cbr -e 1000 -c 2 -i 21 -a 2 -x {1.0 3.0 21 ------- null}
+ -t 0.2788 -s 4 -d 5 -p cbr -e 1000 -c 2 -i 21 -a 2 -x {1.0 3.0 21 ------- null}
- -t 0.2788 -s 4 -d 5 -p cbr -e 1000 -c 2 -i 21 -a 2 -x {1.0 3.0 21 ------- null}
h -t 0.2788 -s 4 -d 5 -p cbr -e 1000 -c 2 -i 21 -a 2 -x {1.0 3.0 -1 ------- null}
r -t 0.2792 -s 5 -d 3 -p cbr -e 1000 -c 2 -i 17 -a 2 -x {1.0 3.0 17 ------- null}
+ -t 0.284 -s 1 -d 4 -p cbr -e 1000 -c 2 -i 23 -a 2 -x {1.0 3.0 23 ------- null}
- -t 0.284 -s 1 -d 4 -p cbr -e 1000 -c 2 -i 23 -a 2 -x {1.0 3.0 23 ------- null}
h -t 0.284 -s 1 -d 4 -p cbr -e 1000 -c 2 -i 23 -a 2 -x {1.0 3.0 -1 ------- null}
r -t 0.2844 -s 4 -d 5 -p cbr -e 1000 -c 2 -i 19 -a 2 -x {1.0 3.0 19 ------- null}
+ -t 0.2844 -s 5 -d 3 -p cbr -e 1000 -c 2 -i 19 -a 2 -x {1.0 3.0 19 ------- null}
- -t 0.2844 -s 5 -d 3 -p cbr -e 1000 -c 2 -i 19 -a 2 -x {1.0 3.0 19 ------- null}
h -t 0.2844 -s 5 -d 3 -p cbr -e 1000 -c 2 -i 19 -a 2 -x {1.0 3.0 -1 ------- null}
r -t 0.2868 -s 1 -d 4 -p cbr -e 1000 -c 2 -i 22 -a 2 -x {1.0 3.0 22 ------- null}
+ -t 0.2868 -s 4 -d 5 -p cbr -e 1000 -c 2 -i 22 -a 2 -x {1.0 3.0 22 ------- null}
- -t 0.2868 -s 4 -d 5 -p cbr -e 1000 -c 2 -i 22 -a 2 -x {1.0 3.0 22 ------- null}
h -t 0.2868 -s 4 -d 5 -p cbr -e 1000 -c 2 -i 22 -a 2 -x {1.0 3.0 -1 ------- null}
r -t 0.2872 -s 5 -d 3 -p cbr -e 1000 -c 2 -i 18 -a 2 -x {1.0 3.0 18 ------- null}
+ -t 0.292 -s 1 -d 4 -p cbr -e 1000 -c 2 -i 24 -a 2 -x {1.0 3.0 24 ------- null}
- -t 0.292 -s 1 -d 4 -p cbr -e 1000 -c 2 -i 24 -a 2 -x {1.0 3.0 24 ------- null}
h -t 0.292 -s 1 -d 4 -p cbr -e 1000 -c 2 -i 24 -a 2 -x {1.0 3.0 -1 ------- null}
r -t 0.2924 -s 4 -d 5 -p cbr -e 1000 -c 2 -i 20 -a 2 -x {1.0 3.0 20 ------- null}
+ -t 0.2924 -s 5 -d 3 -p cbr -e 1000 -c 2 -i 20 -a 2 -x {1.0 3.0 20 ------- null}
- -t 0.2924 -s 5 -d 3 -p cbr -e 1000 -c 2 -i 20 -a 2 -x {1.0 3.0 20 ------- null}
h -t 0.2924 -s 5 -d 3 -p cbr -e 1000 -c 2 -i 20 -a 2 -x {1.0 3.0 -1 ------- null}
r -t 0.2948 -s 1 -d 4 -p cbr -e 1000 -c 2 -i 23 -a 2 -x {1.0 3.0 23 ------- null}
+ -t 0.2948 -s 4 -d 5 -p cbr -e 1000 -c 2 -i 23 -a 2 -x {1.0 3.0 23 ------- null}
- -t 0.2948 -s 4 -d 5 -p cbr -e 1000 -c 2 -i 23 -a 2 -x {1.0 3.0 23 ------- null}
h -t 0.2948 -s 4 -d 5 -p cbr -e 1000 -c 2 -i 23 -a 2 -x {1.0 3.0 -1 ------- null}
r -t 0.2952 -s 5 -d 3 -p cbr -e 1000 -c 2 -i 19 -a 2 -x {1.0 3.0 19 ------- null}
+ -t 0.3 -s 1 -d 4 -p cbr -e 1000 -c 2 -i 25 -a 2 -x {1.0 3.0 25 ------- null}
- -t 0.3 -s 1 -d 4 -p cbr -e 1000 -c 2 -i 25 -a 2 -x {1.0 3.0 25 ------- null}
h -t 0.3 -s 1 -d 4 -p cbr -e 1000 -c 2 -i 25 -a 2 -x {1.0 3.0 -1 ------- null}
r -t 0.3004 -s 4 -d 5 -p cbr -e 1000 -c 2 -i 21 -a 2 -x {1.0 3.0 21 ------- null}
+ -t 0.3004 -s 5 -d 3 -p cbr -e 1000 -c 2 -i 21 -a 2 -x {1.0 3.0 21 ------- null}
- -t 0.3004 -s 5 -d 3 -p cbr -e 1000 -c 2 -i 21 -a 2 -x {1.0 3.0 21 ------- null}
h -t 0.3004 -s 5 -d 3 -p cbr -e 1000 -c 2 -i 21 -a 2 -x {1.0 3.0 -1 ------- null}
r -t 0.3028 -s 1 -d 4 -p cbr -e 1000 -c 2 -i 24 -a 2 -x {1.0 3.0 24 ------- null}
+ -t 0.3028 -s 4 -d 5 -p cbr -e 1000 -c 2 -i 24 -a 2 -x {1.0 3.0 24 ------- null}
- -t 0.3028 -s 4 -d 5 -p cbr -e 1000 -c 2 -i 24 -a 2 -x {1.0 3.0 24 ------- null}
h -t 0.3028 -s 4 -d 5 -p cbr -e 1000 -c 2 -i 24 -a 2 -x {1.0 3.0 -1 ------- null}
r -t 0.3032 -s 5 -d 3 -p cbr -e 1000 -c 2 -i 20 -a 2 -x {1.0 3.0 20 ------- null}
+ -t 0.308 -s 1 -d 4 -p cbr -e 1000 -c 2 -i 26 -a 2 -x {1.0 3.0 26 ------- null}
- -t 0.308 -s 1 -d 4 -p cbr -e 1000 -c 2 -i 26 -a 2 -x {1.0 3.0 26 ------- null}
h -t 0.308 -s 1 -d 4 -p cbr -e 1000 -c 2 -i 26 -a 2 -x {1.0 3.0 -1 ------- null}
r -t 0.3084 -s 4 -d 5 -p cbr -e 1000 -c 2 -i 22 -a 2 -x {1.0 3.0 22 ------- null}
+ -t 0.3084 -s 5 -d 3 -p cbr -e 1000 -c 2 -i 22 -a 2 -x {1.0 3.0 22 ------- null}
- -t 0.3084 -s 5 -d 3 -p cbr -e 1000 -c 2 -i 22 -a 2 -x {1.0 3.0 22 ------- null}
h -t 0.3084 -s 5 -d 3 -p cbr -e 1000 -c 2 -i 22 -a 2 -x {1.0 3.0 -1 ------- null}
r -t 0.3108 -s 1 -d 4 -p cbr -e 1000 -c 2 -i 25 -a 2 -x {1.0 3.0 25 ------- null}
+ -t 0.3108 -s 4 -d 5 -p cbr -e 1000 -c 2 -i 25 -a 2 -x {1.0 3.0 25 ------- null}
- -t 0.3108 -s 4 -d 5 -p cbr -e 1000 -c 2 -i 25 -a 2 -x {1.0 3.0 25 ------- null}
h -t 0.3108 -s 4 -d 5 -p cbr -e 1000 -c 2 -i 25 -a 2 -x {1.0 3.0 -1 ------- null}
r -t 0.3112 -s 5 -d 3 -p cbr -e 1000 -c 2 -i 21 -a 2 -x {1.0 3.0 21 ------- null}
+ -t 0.316 -s 1 -d 4 -p cbr -e 1000 -c 2 -i 27 -a 2 -x {1.0 3.0 27 ------- null}
- -t 0.316 -s 1 -d 4 -p cbr -e 1000 -c 2 -i 27 -a 2 -x {1.0 3.0 27 ------- null}
h -t 0.316 -s 1 -d 4 -p cbr -e 1000 -c 2 -i 27 -a 2 -x {1.0 3.0 -1 ------- null}
r -t 0.3164 -s 4 -d 5 -p cbr -e 1000 -c 2 -i 23 -a 2 -x {1.0 3.0 23 ------- null}
+ -t 0.3164 -s 5 -d 3 -p cbr -e 1000 -c 2 -i 23 -a 2 -x {1.0 3.0 23 ------- null}
- -t 0.3164 -s 5 -d 3 -p cbr -e 1000 -c 2 -i 23 -a 2 -x {1.0 3.0 23 ------- null}
h -t 0.3164 -s 5 -d 3 -p cbr -e 1000 -c 2 -i 23 -a 2 -x {1.0 3.0 -1 ------- null}
r -t 0.3188 -s 1 -d 4 -p cbr -e 1000 -c 2 -i 26 -a 2 -x {1.0 3.0 26 ------- null}
+ -t 0.3188 -s 4 -d 5 -p cbr -e 1000 -c 2 -i 26 -a 2 -x {1.0 3.0 26 ------- null}
- -t 0.3188 -s 4 -d 5 -p cbr -e 1000 -c 2 -i 26 -a 2 -x {1.0 3.0 26 ------- null}
h -t 0.3188 -s 4 -d 5 -p cbr -e 1000 -c 2 -i 26 -a 2 -x {1.0 3.0 -1 ------- null}
r -t 0.3192 -s 5 -d 3 -p cbr -e 1000 -c 2 -i 22 -a 2 -x {1.0 3.0 22 ------- null}
+ -t 0.324 -s 1 -d 4 -p cbr -e 1000 -c 2 -i 28 -a 2 -x {1.0 3.0 28 ------- null}
- -t 0.324 -s 1 -d 4 -p cbr -e 1000 -c 2 -i 28 -a 2 -x {1.0 3.0 28 ------- null}
h -t 0.324 -s 1 -d 4 -p cbr -e 1000 -c 2 -i 28 -a 2 -x {1.0 3.0 -1 ------- null}
r -t 0.3244 -s 4 -d 5 -p cbr -e 1000 -c 2 -i 24 -a 2 -x {1.0 3.0 24 ------- null}
+ -t 0.3244 -s 5 -d 3 -p cbr -e 1000 -c 2 -i 24 -a 2 -x {1.0 3.0 24 ------- null}
- -t 0.3244 -s 5 -d 3 -p cbr -e 1000 -c 2 -i 24 -a 2 -x {1.0 3.0 24 ------- null}
h -t 0.3244 -s 5 -d 3 -p cbr -e 1000 -c 2 -i 24 -a 2 -x {1.0 3.0 -1 ------- null}
r -t 0.3268 -s 1 -d 4 -p cbr -e 1000 -c 2 -i 27 -a 2 -x {1.0 3.0 27 ------- null}
+ -t 0.3268 -s 4 -d 5 -p cbr -e 1000 -c 2 -i 27 -a 2 -x {1.0 3.0 27 ------- null}
- -t 0.3268 -s 4 -d 5 -p cbr -e 1000 -c 2 -i 27 -a 2 -x {1.0 3.0 27 ------- null}
h -t 0.3268 -s 4 -d 5 -p cbr -e 1000 -c 2 -i 27 -a 2 -x {1.0 3.0 -1 ------- null}
r -t 0.3272 -s 5 -d 3 -p cbr -e 1000 -c 2 -i 23 -a 2 -x {1.0 3.0 23 ------- null}
+ -t 0.332 -s 1 -d 4 -p cbr -e 1000 -c 2 -i 29 -a 2 -x {1.0 3.0 29 ------- null}
- -t 0.332 -s 1 -d 4 -p cbr -e 1000 -c 2 -i 29 -a 2 -x {1.0 3.0 29 ------- null}
h -t 0.332 -s 1 -d 4 -p cbr -e 1000 -c 2 -i 29 -a 2 -x {1.0 3.0 -1 ------- null}
r -t 0.3324 -s 4 -d 5 -p cbr -e 1000 -c 2 -i 25 -a 2 -x {1.0 3.0 25 ------- null}
+ -t 0.3324 -s 5 -d 3 -p cbr -e 1000 -c 2 -i 25 -a 2 -x {1.0 3.0 25 ------- null}
- -t 0.3324 -s 5 -d 3 -p cbr -e 1000 -c 2 -i 25 -a 2 -x {1.0 3.0 25 ------- null}
h -t 0.3324 -s 5 -d 3 -p cbr -e 1000 -c 2 -i 25 -a 2 -x {1.0 3.0 -1 ------- null}
r -t 0.3348 -s 1 -d 4 -p cbr -e 1000 -c 2 -i 28 -a 2 -x {1.0 3.0 28 ------- null}
+ -t 0.3348 -s 4 -d 5 -p cbr -e 1000 -c 2 -i 28 -a 2 -x {1.0 3.0 28 ------- null}
- -t 0.3348 -s 4 -d 5 -p cbr -e 1000 -c 2 -i 28 -a 2 -x {1.0 3.0 28 ------- null}
h -t 0.3348 -s 4 -d 5 -p cbr -e 1000 -c 2 -i 28 -a 2 -x {1.0 3.0 -1 ------- null}
r -t 0.3352 -s 5 -d 3 -p cbr -e 1000 -c 2 -i 24 -a 2 -x {1.0 3.0 24 ------- null}
+ -t 0.34 -s 1 -d 4 -p cbr -e 1000 -c 2 -i 30 -a 2 -x {1.0 3.0 30 ------- null}
- -t 0.34 -s 1 -d 4 -p cbr -e 1000 -c 2 -i 30 -a 2 -x {1.0 3.0 30 ------- null}
h -t 0.34 -s 1 -d 4 -p cbr -e 1000 -c 2 -i 30 -a 2 -x {1.0 3.0 -1 ------- null}
r -t 0.3404 -s 4 -d 5 -p cbr -e 1000 -c 2 -i 26 -a 2 -x {1.0 3.0 26 ------- null}
+ -t 0.3404 -s 5 -d 3 -p cbr -e 1000 -c 2 -i 26 -a 2 -x {1.0 3.0 26 ------- null}
- -t 0.3404 -s 5 -d 3 -p cbr -e 1000 -c 2 -i 26 -a 2 -x {1.0 3.0 26 ------- null}
h -t 0.3404 -s 5 -d 3 -p cbr -e 1000 -c 2 -i 26 -a 2 -x {1.0 3.0 -1 ------- null}
r -t 0.3428 -s 1 -d 4 -p cbr -e 1000 -c 2 -i 29 -a 2 -x {1.0 3.0 29 ------- null}
+ -t 0.3428 -s 4 -d 5 -p cbr -e 1000 -c 2 -i 29 -a 2 -x {1.0 3.0 29 ------- null}
- -t 0.3428 -s 4 -d 5 -p cbr -e 1000 -c 2 -i 29 -a 2 -x {1.0 3.0 29 ------- null}
h -t 0.3428 -s 4 -d 5 -p cbr -e 1000 -c 2 -i 29 -a 2 -x {1.0 3.0 -1 ------- null}
r -t 0.3432 -s 5 -d 3 -p cbr -e 1000 -c 2 -i 25 -a 2 -x {1.0 3.0 25 ------- null}
+ -t 0.348 -s 1 -d 4 -p cbr -e 1000 -c 2 -i 31 -a 2 -x {1.0 3.0 31 ------- null}
- -t 0.348 -s 1 -d 4 -p cbr -e 1000 -c 2 -i 31 -a 2 -x {1.0 3.0 31 ------- null}
h -t 0.348 -s 1 -d 4 -p cbr -e 1000 -c 2 -i 31 -a 2 -x {1.0 3.0 -1 ------- null}
r -t 0.3484 -s 4 -d 5 -p cbr -e 1000 -c 2 -i 27 -a 2 -x {1.0 3.0 27 ------- null}
+ -t 0.3484 -s 5 -d 3 -p cbr -e 1000 -c 2 -i 27 -a 2 -x {1.0 3.0 27 ------- null}
- -t 0.3484 -s 5 -d 3 -p cbr -e 1000 -c 2 -i 27 -a 2 -x {1.0 3.0 27 ------- null}
h -t 0.3484 -s 5 -d 3 -p cbr -e 1000 -c 2 -i 27 -a 2 -x {1.0 3.0 -1 ------- null}
r -t 0.3508 -s 1 -d 4 -p cbr -e 1000 -c 2 -i 30 -a 2 -x {1.0 3.0 30 ------- null}
+ -t 0.3508 -s 4 -d 5 -p cbr -e 1000 -c 2 -i 30 -a 2 -x {1.0 3.0 30 ------- null}
- -t 0.3508 -s 4 -d 5 -p cbr -e 1000 -c 2 -i 30 -a 2 -x {1.0 3.0 30 ------- null}
h -t 0.3508 -s 4 -d 5 -p cbr -e 1000 -c 2 -i 30 -a 2 -x {1.0 3.0 -1 ------- null}