+ 0.1 1 4 cbr 1000 ------- 2 1.0 3.0 0 0
- 0.1 1 4 cbr 1000 ------- 2 1.0 3.0 0 0
+ 0.108 1 4 cbr 1000 ------- 2 1.0 3.0 1 1
- 0.108 1 4 cbr 1000 ------- 2 1.0 3.0 1 1
r 0.1108 1 4 cbr 1000 ------- 2 1.0 3.0 0 0
+ 0.1108 4 5 cbr 1000 ------- 2 1.0 3.0 0 0
- 0.1108 4 5 cbr 1000 ------- 2 1.0 3.0 0 0
+ 0.116 1 4 cbr 1000 ------- 2 1.0 3.0 2 2
- 0.116 1 4 cbr 1000 ------- 2 1.0 3.0 2 2
r 0.1188 1 4 cbr 1000 ------- 2 1.0 3.0 1 1
+ 0.1188 4 5 cbr 1000 ------- 2 1.0 3.0 1 1
- 0.1188 4 5 cbr 1000 ------- 2 1.0 3.0 1 1
+ 0.124 1 4 cbr 1000 ------- 2 1.0 3.0 3 3
- 0.124 1 4 cbr 1000 ------- 2 1.0 3.0 3 3
r 0.1268 1 4 cbr 1000 ------- 2 1.0 3.0 2 2
+ 0.1268 4 5 cbr 1000 ------- 2 1.0 3.0 2 2
- 0.1268 4 5 cbr 1000 ------- 2 1.0 3.0 2 2
+ 0.132 1 4 cbr 1000 ------- 2 1.0 3.0 4 4
- 0.132 1 4 cbr 1000 ------- 2 1.0 3.0 4 4
r 0.1324 4 5 cbr 1000 ------- 2 1.0 3.0 0 0
+ 0.1324 5 3 cbr 1000 ------- 2 1.0 3.0 0 0
- 0.1324 5 3 cbr 1000 ------- 2 1.0 3.0 0 0
r 0.1348 1 4 cbr 1000 ------- 2 1.0 3.0 3 3
+ 0.1348 4 5 cbr 1000 ------- 2 1.0 3.0 3 3
- 0.1348 4 5 cbr 1000 ------- 2 1.0 3.0 3 3
+ 0.14 1 4 cbr 1000 ------- 2 1.0 3.0 5 5
- 0.14 1 4 cbr 1000 ------- 2 1.0 3.0 5 5
r 0.1404 4 5 cbr 1000 ------- 2 1.0 3.0 1 1
+ 0.1404 5 3 cbr 1000 ------- 2 1.0 3.0 1 1
- 0.1404 5 3 cbr 1000 ------- 2 1.0 3.0 1 1
r 0.1428 1 4 cbr 1000 ------- 2 1.0 3.0 4 4
+ 0.1428 4 5 cbr 1000 ------- 2 1.0 3.0 4 4
- 0.1428 4 5 cbr 1000 ------- 2 1.0 3.0 4 4
r 0.1432 5 3 cbr 1000 ------- 2 1.0 3.0 0 0
+ 0.148 1 4 cbr 1000 ------- 2 1.0 3.0 6 6
- 0.148 1 4 cbr 1000 ------- 2 1.0 3.0 6 6
r 0.1484 4 5 cbr 1000 ------- 2 1.0 3.0 2 2
+ 0.1484 5 3 cbr 1000 ------- 2 1.0 3.0 2 2
- 0.1484 5 3 cbr 1000 ------- 2 1.0 3.0 2 2
r 0.1508 1 4 cbr 1000 ------- 2 1.0 3.0 5 5
+ 0.1508 4 5 cbr 1000 ------- 2 1.0 3.0 5 5
- 0.1508 4 5 cbr 1000 ------- 2 1.0 3.0 5 5
r 0.1512 5 3 cbr 1000 ------- 2 1.0 3.0 1 1
+ 0.156 1 4 cbr 1000 ------- 2 1.0 3.0 7 7
- 0.156 1 4 cbr 1000 ------- 2 1.0 3.0 7 7
r 0.1564 4 5 cbr 1000 ------- 2 1.0 3.0 3 3
+ 0.1564 5 3 cbr 1000 ------- 2 1.0 3.0 3 3
- 0.1564 5 3 cbr 1000 ------- 2 1.0 3.0 3 3
r 0.1588 1 4 cbr 1000 ------- 2 1.0 3.0 6 6
+ 0.1588 4 5 cbr 1000 ------- 2 1.0 3.0 6 6
- 0.1588 4 5 cbr 1000 ------- 2 1.0 3.0 6 6
r 0.1592 5 3 cbr 1000 ------- 2 1.0 3.0 2 2
+ 0.164 1 4 cbr 1000 ------- 2 1.0 3.0 8 8
- 0.164 1 4 cbr 1000 ------- 2 1.0 3.0 8 8
r 0.1644 4 5 cbr 1000 ------- 2 1.0 3.0 4 4
+ 0.1644 5 3 cbr 1000 ------- 2 1.0 3.0 4 4
- 0.1644 5 3 cbr 1000 ------- 2 1.0 3.0 4 4
r 0.1668 1 4 cbr 1000 ------- 2 1.0 3.0 7 7
+ 0.1668 4 5 cbr 1000 ------- 2 1.0 3.0 7 7
- 0.1668 4 5 cbr 1000 ------- 2 1.0 3.0 7 7
r 0.1672 5 3 cbr 1000 ------- 2 1.0 3.0 3 3
+ 0.172 1 4 cbr 1000 ------- 2 1.0 3.0 9 9
- 0.172 1 4 cbr 1000 ------- 2 1.0 3.0 9 9
r 0.1724 4 5 cbr 1000 ------- 2 1.0 3.0 5 5
+ 0.1724 5 3 cbr 1000 ------- 2 1.0 3.0 5 5
- 0.1724 5 3 cbr 1000 ------- 2 1.0 3.0 5 5
r 0.1748 1 4 cbr 1000 ------- 2 1.0 3.0 8 8
+ 0.1748 4 5 cbr 1000 ------- 2 1.0 3.0 8 8
- 0.1748 4 5 cbr 1000 ------- 2 1.0 3.0 8 8
r 0.1752 5 3 cbr 1000 ------- 2 1.0 3.0 4 4
+ 0.18 1 4 cbr 1000 ------- 2 1.0 3.0 10 10
- 0.18 1 4 cbr 1000 ------- 2 1.0 3.0 10 10
r 0.1804 4 5 cbr 1000 ------- 2 1.0 3.0 6 6
+ 0.1804 5 3 cbr 1000 ------- 2 1.0 3.0 6 6
- 0.1804 5 3 cbr 1000 ------- 2 1.0 3.0 6 6
r 0.1828 1 4 cbr 1000 ------- 2 1.0 3.0 9 9
+ 0.1828 4 5 cbr 1000 ------- 2 1.0 3.0 9 9
- 0.1828 4 5 cbr 1000 ------- 2 1.0 3.0 9 9
r 0.1832 5 3 cbr 1000 ------- 2 1.0 3.0 5 5
+ 0.188 1 4 cbr 1000 ------- 2 1.0 3.0 11 11
- 0.188 1 4 cbr 1000 ------- 2 1.0 3.0 11 11
r 0.1884 4 5 cbr 1000 ------- 2 1.0 3.0 7 7
+ 0.1884 5 3 cbr 1000 ------- 2 1.0 3.0 7 7
- 0.1884 5 3 cbr 1000 ------- 2 1.0 3.0 7 7
r 0.1908 1 4 cbr 1000 ------- 2 1.0 3.0 10 10
+ 0.1908 4 5 cbr 1000 ------- 2 1.0 3.0 10 10
- 0.1908 4 5 cbr 1000 ------- 2 1.0 3.0 10 10
r 0.1912 5 3 cbr 1000 ------- 2 1.0 3.0 6 6
+ 0.196 1 4 cbr 1000 ------- 2 1.0 3.0 12 12
- 0.196 1 4 cbr 1000 ------- 2 1.0 3.0 12 12
r 0.1964 4 5 cbr 1000 ------- 2 1.0 3.0 8 8
+ 0.1964 5 3 cbr 1000 ------- 2 1.0 3.0 8 8
- 0.1964 5 3 cbr 1000 ------- 2 1.0 3.0 8 8
r 0.1988 1 4 cbr 1000 ------- 2 1.0 3.0 11 11
+ 0.1988 4 5 cbr 1000 ------- 2 1.0 3.0 11 11
- 0.1988 4 5 cbr 1000 ------- 2 1.0 3.0 11 11
r 0.1992 5 3 cbr 1000 ------- 2 1.0 3.0 7 7
+ 0.204 1 4 cbr 1000 ------- 2 1.0 3.0 13 13
- 0.204 1 4 cbr 1000 ------- 2 1.0 3.0 13 13
r 0.2044 4 5 cbr 1000 ------- 2 1.0 3.0 9 9
+ 0.2044 5 3 cbr 1000 ------- 2 1.0 3.0 9 9
- 0.2044 5 3 cbr 1000 ------- 2 1.0 3.0 9 9
r 0.2068 1 4 cbr 1000 ------- 2 1.0 3.0 12 12
+ 0.2068 4 5 cbr 1000 ------- 2 1.0 3.0 12 12
- 0.2068 4 5 cbr 1000 ------- 2 1.0 3.0 12 12
r 0.2072 5 3 cbr 1000 ------- 2 1.0 3.0 8 8
+ 0.212 1 4 cbr 1000 ------- 2 1.0 3.0 14 14
- 0.212 1 4 cbr 1000 ------- 2 1.0 3.0 14 14
r 0.2124 4 5 cbr 1000 ------- 2 1.0 3.0 10 10
+ 0.2124 5 3 cbr 1000 ------- 2 1.0 3.0 10 10
- 0.2124 5 3 cbr 1000 ------- 2 1.0 3.0 10 10
r 0.2148 1 4 cbr 1000 ------- 2 1.0 3.0 13 13
+ 0.2148 4 5 cbr 1000 ------- 2 1.0 3.0 13 13
- 0.2148 4 5 cbr 1000 ------- 2 1.0 3.0 13 13
r 0.2152 5 3 cbr 1000 ------- 2 1.0 3.0 9 9
+ 0.22 1 4 cbr 1000 ------- 2 1.0 3.0 15 15
- 0.22 1 4 cbr 1000 ------- 2 1.0 3.0 15 15
r 0.2204 4 5 cbr 1000 ------- 2 1.0 3.0 11 11
+ 0.2204 5 3 cbr 1000 ------- 2 1.0 3.0 11 11
- 0.2204 5 3 cbr 1000 ------- 2 1.0 3.0 11 11
r 0.2228 1 4 cbr 1000 ------- 2 1.0 3.0 14 14
+ 0.2228 4 5 cbr 1000 ------- 2 1.0 3.0 14 14
- 0.2228 4 5 cbr 1000 ------- 2 1.0 3.0 14 14
r 0.2232 5 3 cbr 1000 ------- 2 1.0 3.0 10 10
+ 0.228 1 4 cbr 1000 ------- 2 1.0 3.0 16 16
- 0.228 1 4 cbr 1000 ------- 2 1.0 3.0 16 16
r 0.2284 4 5 cbr 1000 ------- 2 1.0 3.0 12 12
+ 0.2284 5 3 cbr 1000 ------- 2 1.0 3.0 12 12
- 0.2284 5 3 cbr 1000 ------- 2 1.0 3.0 12 12
r 0.2308 1 4 cbr 1000 ------- 2 1.0 3.0 15 15
+ 0.2308 4 5 cbr 1000 ------- 2 1.0 3.0 15 15
- 0.2308 4 5 cbr 1000 ------- 2 1.0 3.0 15 15
r 0.2312 5 3 cbr 1000 ------- 2 1.0 3.0 11 11
+ 0.236 1 4 cbr 1000 ------- 2 1.0 3.0 17 17
- 0.236 1 4 cbr 1000 ------- 2 1.0 3.0 17 17
r 0.2364 4 5 cbr 1000 ------- 2 1.0 3.0 13 13
+ 0.2364 5 3 cbr 1000 ------- 2 1.0 3.0 13 13
- 0.2364 5 3 cbr 1000 ------- 2 1.0 3.0 13 13
r 0.2388 1 4 cbr 1000 ------- 2 1.0 3.0 16 16
+ 0.2388 4 5 cbr 1000 ------- 2 1.0 3.0 16 16
- 0.2388 4 5 cbr 1000 ------- 2 1.0 3.0 16 16
r 0.2392 5 3 cbr 1000 ------- 2 1.0 3.0 12 12
+ 0.244 1 4 cbr 1000 ------- 2 1.0 3.0 18 18
- 0.244 1 4 cbr 1000 ------- 2 1.0 3.0 18 18
r 0.2444 4 5 cbr 1000 ------- 2 1.0 3.0 14 14
+ 0.2444 5 3 cbr 1000 ------- 2 1.0 3.0 14 14
- 0.2444 5 3 cbr 1000 ------- 2 1.0 3.0 14 14
r 0.2468 1 4 cbr 1000 ------- 2 1.0 3.0 17 17
+ 0.2468 4 5 cbr 1000 ------- 2 1.0 3.0 17 17
- 0.2468 4 5 cbr 1000 ------- 2 1.0 3.0 17 17
r 0.2472 5 3 cbr 1000 ------- 2 1.0 3.0 13 13
+ 0.252 1 4 cbr 1000 ------- 2 1.0 3.0 19 19
- 0.252 1 4 cbr 1000 ------- 2 1.0 3.0 19 19
r 0.2524 4 5 cbr 1000 ------- 2 1.0 3.0 15 15
+ 0.2524 5 3 cbr 1000 ------- 2 1.0 3.0 15 15
- 0.2524 5 3 cbr 1000 ------- 2 1.0 3.0 15 15
r 0.2548 1 4 cbr 1000 ------- 2 1.0 3.0 18 18
+ 0.2548 4 5 cbr 1000 ------- 2 1.0 3.0 18 18
- 0.2548 4 5 cbr 1000 ------- 2 1.0 3.0 18 18
r 0.2552 5 3 cbr 1000 ------- 2 1.0 3.0 14 14
+ 0.26 1 4 cbr 1000 ------- 2 1.0 3.0 20 20
- 0.26 1 4 cbr 1000 ------- 2 1.0 3.0 20 20
r 0.2604 4 5 cbr 1000 ------- 2 1.0 3.0 16 16
+ 0.2604 5 3 cbr 1000 ------- 2 1.0 3.0 16 16
- 0.2604 5 3 cbr 1000 ------- 2 1.0 3.0 16 16
r 0.2628 1 4 cbr 1000 ------- 2 1.0 3.0 19 19
+ 0.2628 4 5 cbr 1000 ------- 2 1.0 3.0 19 19
- 0.2628 4 5 cbr 1000 ------- 2 1.0 3.0 19 19
r 0.2632 5 3 cbr 1000 ------- 2 1.0 3.0 15 15
+ 0.268 1 4 cbr 1000 ------- 2 1.0 3.0 21 21
- 0.268 1 4 cbr 1000 ------- 2 1.0 3.0 21 21
r 0.2684 4 5 cbr 1000 ------- 2 1.0 3.0 17 17
+ 0.2684 5 3 cbr 1000 ------- 2 1.0 3.0 17 17
- 0.2684 5 3 cbr 1000 ------- 2 1.0 3.0 17 17
r 0.2708 1 4 cbr 1000 ------- 2 1.0 3.0 20 20
+ 0.2708 4 5 cbr 1000 ------- 2 1.0 3.0 20 20
- 0.2708 4 5 cbr 1000 ------- 2 1.0 3.0 20 20
r 0.2712 5 3 cbr 1000 ------- 2 1.0 3.0 16 16
+ 0.276 1 4 cbr 1000 ------- 2 1.0 3.0 22 22
- 0.276 1 4 cbr 1000 ------- 2 1.0 3.0 22 22
r 0.2764 4 5 cbr 1000 ------- 2 1.0 3.0 18 18
+ 0.2764 5 3 cbr 1000 ------- 2 1.0 3.0 18 18
- 0.2764 5 3 cbr 1000 ------- 2 1.0 3.0 18 18
r 0.2788 1 4 cbr 1000 ------- 2 1.0 3.0 21 21
+ 0.2788 4 5 cbr 1000 ------- 2 1.0 3.0 21 21
- 0.2788 4 5 cbr 1000 ------- 2 1.0 3.0 21 21
r 0.2792 5 3 cbr 1000 ------- 2 1.0 3.0 17 17
+ 0.284 1 4 cbr 1000 ------- 2 1.0 3.0 23 23
- 0.284 1 4 cbr 1000 ------- 2 1.0 3.0 23 23
r 0.2844 4 5 cbr 1000 ------- 2 1.0 3.0 19 19
+ 0.2844 5 3 cbr 1000 ------- 2 1.0 3.0 19 19
- 0.2844 5 3 cbr 1000 ------- 2 1.0 3.0 19 19
r 0.2868 1 4 cbr 1000 ------- 2 1.0 3.0 22 22
+ 0.2868 4 5 cbr 1000 ------- 2 1.0 3.0 22 22
- 0.2868 4 5 cbr 1000 ------- 2 1.0 3.0 22 22
r 0.2872 5 3 cbr 1000 ------- 2 1.0 3.0 18 18
+ 0.292 1 4 cbr 1000 ------- 2 1.0 3.0 24 24
- 0.292 1 4 cbr 1000 ------- 2 1.0 3.0 24 24
r 0.2924 4 5 cbr 1000 ------- 2 1.0 3.0 20 20
+ 0.2924 5 3 cbr 1000 ------- 2 1.0 3.0 20 20
- 0.2924 5 3 cbr 1000 ------- 2 1.0 3.0 20 20
r 0.2948 1 4 cbr 1000 ------- 2 1.0 3.0 23 23
+ 0.2948 4 5 cbr 1000 ------- 2 1.0 3.0 23 23
- 0.2948 4 5 cbr 1000 ------- 2 1.0 3.0 23 23
r 0.2952 5 3 cbr 1000 ------- 2 1.0 3.0 19 19
+ 0.3 1 4 cbr 1000 ------- 2 1.0 3.0 25 25
- 0.3 1 4 cbr 1000 ------- 2 1.0 3.0 25 25
r 0.3004 4 5 cbr 1000 ------- 2 1.0 3.0 21 21
+ 0.3004 5 3 cbr 1000 ------- 2 1.0 3.0 21 21
- 0.3004 5 3 cbr 1000 ------- 2 1.0 3.0 21 21
r 0.3028 1 4 cbr 1000 ------- 2 1.0 3.0 24 24
+ 0.3028 4 5 cbr 1000 ------- 2 1.0 3.0 24 24
- 0.3028 4 5 cbr 1000 ------- 2 1.0 3.0 24 24
r 0.3032 5 3 cbr 1000 ------- 2 1.0 3.0 20 20
+ 0.308 1 4 cbr 1000 ------- 2 1.0 3.0 26 26
- 0.308 1 4 cbr 1000 ------- 2 1.0 3.0 26 26
r 0.3084 4 5 cbr 1000 ------- 2 1.0 3.0 22 22
+ 0.3084 5 3 cbr 1000 ------- 2 1.0 3.0 22 22
- 0.3084 5 3 cbr 1000 ------- 2 1.0 3.0 22 22
r 0.3108 1 4 cbr 1000 ------- 2 1.0 3.0 25 25
+ 0.3108 4 5 cbr 1000 ------- 2 1.0 3.0 25 25
- 0.3108 4 5 cbr 1000 ------- 2 1.0 3.0 25 25
r 0.3112 5 3 cbr 1000 ------- 2 1.0 3.0 21 21
+ 0.316 1 4 cbr 1000 ------- 2 1.0 3.0 27 27
- 0.316 1 4 cbr 1000 ------- 2 1.0 3.0 27 27
r 0.3164 4 5 cbr 1000 ------- 2 1.0 3.0 23 23
+ 0.3164 5 3 cbr 1000 ------- 2 1.0 3.0 23 23
- 0.3164 5 3 cbr 1000 ------- 2 1.0 3.0 23 23
r 0.3188 1 4 cbr 1000 ------- 2 1.0 3.0 26 26
+ 0.3188 4 5 cbr 1000 ------- 2 1.0 3.0 26 26
- 0.3188 4 5 cbr 1000 ------- 2 1.0 3.0 26 26
r 0.3192 5 3 cbr 1000 ------- 2 1.0 3.0 22 22
+ 0.324 1 4 cbr 1000 ------- 2 1.0 3.0 28 28
- 0.324 1 4 cbr 1000 ------- 2 1.0 3.0 28 28
r 0.3244 4 5 cbr 1000 ------- 2 1.0 3.0 24 24
+ 0.3244 5 3 cbr 1000 ------- 2 1.0 3.0 24 24
- 0.3244 5 3 cbr 1000 ------- 2 1.0 3.0 24 24
r 0.3268 1 4 cbr 1000 ------- 2 1.0 3.0 27 27
+ 0.3268 4 5 cbr 1000 ------- 2 1.0 3.0 27 27
- 0.3268 4 5 cbr 1000 ------- 2 1.0 3.0 27 27
r 0.3272 5 3 cbr 1000 ------- 2 1.0 3.0 23 23
+ 0.332 1 4 cbr 1000 ------- 2 1.0 3.0 29 29
- 0.332 1 4 cbr 1000 ------- 2 1.0 3.0 29 29
r 0.3324 4 5 cbr 1000 ------- 2 1.0 3.0 25 25
+ 0.3324 5 3 cbr 1000 ------- 2 1.0 3.0 25 25
- 0.3324 5 3 cbr 1000 ------- 2 1.0 3.0 25 25
r 0.3348 1 4 cbr 1000 ------- 2 1.0 3.0 28 28
+ 0.3348 4 5 cbr 1000 ------- 2 1.0 3.0 28 28
- 0.3348 4 5 cbr 1000 ------- 2 1.0 3.0 28 28
r 0.3352 5 3 cbr 1000 ------- 2 1.0 3.0 24 24
+ 0.34 1 4 cbr 1000 ------- 2 1.0 3.0 30 30
- 0.34 1 4 cbr 1000 ------- 2 1.0 3.0 30 30
r 0.3404 4 5 cbr 1000 ------- 2 1.0 3.0 26 26
+ 0.3404 5 3 cbr 1000 ------- 2 1.0 3.0 26 26
- 0.3404 5 3 cbr 1000 ------- 2 1.0 3.0 26 26
r 0.3428 1 4 cbr 1000 ------- 2 1.0 3.0 29 29
+ 0.3428 4 5 cbr 1000 ------- 2 1.0 3.0 29 29
- 0.3428 4 5 cbr 1000 ------- 2 1.0 3.0 29 29
r 0.3432 5 3 cbr 1000 ------- 2 1.0 3.0 25 25
+ 0.348 1 4 cbr 1000 ------- 2 1.0 3.0 31 31
- 0.348 1 4 cbr 1000 ------- 2 1.0 3.0 31 31
r 0.3484 4 5 cbr 1000 ------- 2 1.0 3.0 27 27
+ 0.3484 5 3 cbr 1000 ------- 2 1.0 3.0 27 27
- 0.3484 5 3 cbr 1000 ------- 2 1.0 3.0 27 27
r 0.3508 1 4 cbr 1000 ------- 2 1.0 3.0 30 30
+ 0.3508 4 5 cbr 1000 ------- 2 1.0 3.0 30 30
- 0.3508 4 5 cbr 1000 ------- 2 1.0 3.0 30 30
r 0.3512 5 3 cbr 1000 ------- 2 1.0 3.0 26 26
+ 0.356 1 4 cbr 1000 ------- 2 1.0 3.0 32 32
- 0.356 1 4 cbr 1000 ------- 2 1.0 3.0 32 32
r 0.3564 4 5 cbr 1000 ------- 2 1.0 3.0 28 28
+ 0.3564 5 3 cbr 1000 ------- 2 1.0 3.0 28 28
- 0.3564 5 3 cbr 1000 ------- 2 1.0 3.0 28 28
r 0.3588 1 4 cbr 1000 ------- 2 1.0 3.0 31 31
+ 0.3588 4 5 cbr 1000 ------- 2 1.0 3.0 31 31
- 0.3588 4 5 cbr 1000 ------- 2 1.0 3.0 31 31
r 0.3592 5 3 cbr 1000 ------- 2 1.0 3.0 27 27
+ 0.364 1 4 cbr 1000 ------- 2 1.0 3.0 33 33
- 0.364 1 4 cbr 1000 ------- 2 1.0 3.0 33 33
r 0.3644 4 5 cbr 1000 ------- 2 1.0 3.0 29 29
+ 0.3644 5 3 cbr 1000 ------- 2 1.0 3.0 29 29
- 0.3644 5 3 cbr 1000 ------- 2 1.0 3.0 29 29
r 0.3668 1 4 cbr 1000 ------- 2 1.0 3.0 32 32
+ 0.3668 4 5 cbr 1000 ------- 2 1.0 3.0 32 32
- 0.3668 4 5 cbr 1000 ------- 2 1.0 3.0 32 32
r 0.3672 5 3 cbr 1000 ------- 2 1.0 3.0 28 28
+ 0.372 1 4 cbr 1000 ------- 2 1.0 3.0 34 34
- 0.372 1 4 cbr 1000 ------- 2 1.0 3.0 34 34
r 0.3724 4 5 cbr 1000 ------- 2 1.0 3.0 30 30
+ 0.3724 5 3 cbr 1000 ------- 2 1.0 3.0 30 30
- 0.3724 5 3 cbr 1000 ------- 2 1.0 3.0 30 30
r 0.3748 1 4 cbr 1000 ------- 2 1.0 3.0 33 33
+ 0.3748 4 5 cbr 1000 ------- 2 1.0 3.0 33 33
- 0.3748 4 5 cbr 1000 ------- 2 1.0 3.0 33 33
r 0.3752 5 3 cbr 1000 ------- 2 1.0 3.0 29 29
+ 0.38 1 4 cbr 1000 ------- 2 1.0 3.0 35 35
- 0.38 1 4 cbr 1000 ------- 2 1.0 3.0 35 35
r 0.3804 4 5 cbr 1000 ------- 2 1.0 3.0 31 31
+ 0.3804 5 3 cbr 1000 ------- 2 1.0 3.0 31 31
- 0.3804 5 3 cbr 1000 ------- 2 1.0 3.0 31 31
r 0.3828 1 4 cbr 1000 ------- 2 1.0 3.0 34 34
+ 0.3828 4 5 cbr 1000 ------- 2 1.0 3.0 34 34
- 0.3828 4 5 cbr 1000 ------- 2 1.0 3.0 34 34
r 0.3832 5 3 cbr 1000 ------- 2 1.0 3.0 30 30
+ 0.388 1 4 cbr 1000 ------- 2 1.0 3.0 36 36
- 0.388 1 4 cbr 1000 ------- 2 1.0 3.0 36 36
r 0.3884 4 5 cbr 1000 ------- 2 1.0 3.0 32 32
+ 0.3884 5 3 cbr 1000 ------- 2 1.0 3.0 32 32
- 0.3884 5 3 cbr 1000 ------- 2 1.0 3.0 32 32
r 0.3908 1 4 cbr 1000 ------- 2 1.0 3.0 35 35
+ 0.3908 4 5 cbr 1000 ------- 2 1.0 3.0 35 35
- 0.3908 4 5 cbr 1000 ------- 2 1.0 3.0 35 35
r 0.3912 5 3 cbr 1000 ------- 2 1.0 3.0 31 31
+ 0.396 1 4 cbr 1000 ------- 2 1.0 3.0 37 37
- 0.396 1 4 cbr 1000 ------- 2 1.0 3.0 37 37
r 0.3964 4 5 cbr 1000 ------- 2 1.0 3.0 33 33
+ 0.3964 5 3 cbr 1000 ------- 2 1.0 3.0 33 33
- 0.3964 5 3 cbr 1000 ------- 2 1.0 3.0 33 33
r 0.3988 1 4 cbr 1000 ------- 2 1.0 3.0 36 36
+ 0.3988 4 5 cbr 1000 ------- 2 1.0 3.0 36 36
- 0.3988 4 5 cbr 1000 ------- 2 1.0 3.0 36 36
r 0.3992 5 3 cbr 1000 ------- 2 1.0 3.0 32 32
+ 0.404 1 4 cbr 1000 ------- 2 1.0 3.0 38 38
- 0.404 1 4 cbr 1000 ------- 2 1.0 3.0 38 38
r 0.4044 4 5 cbr 1000 ------- 2 1.0 3.0 34 34
+ 0.4044 5 3 cbr 1000 ------- 2 1.0 3.0 34 34
- 0.4044 5 3 cbr 1000 ------- 2 1.0 3.0 34 34
r 0.4068 1 4 cbr 1000 ------- 2 1.0 3.0 37 37
+ 0.4068 4 5 cbr 1000 ------- 2 1.0 3.0 37 37
- 0.4068 4 5 cbr 1000 ------- 2 1.0 3.0 37 37
r 0.4072 5 3 cbr 1000 ------- 2 1.0 3.0 33 33
+ 0.412 1 4 cbr 1000 ------- 2 1.0 3.0 39 39
- 0.412 1 4 cbr 1000 ------- 2 1.0 3.0 39 39
r 0.4124 4 5 cbr 1000 ------- 2 1.0 3.0 35 35
+ 0.4124 5 3 cbr 1000 ------- 2 1.0 3.0 35 35
- 0.4124 5 3 cbr 1000 ------- 2 1.0 3.0 35 35
r 0.4148 1 4 cbr 1000 ------- 2 1.0 3.0 38 38
+ 0.4148 4 5 cbr 1000 ------- 2 1.0 3.0 38 38
- 0.4148 4 5 cbr 1000 ------- 2 1.0 3.0 38 38
r 0.4152 5 3 cbr 1000 ------- 2 1.0 3.0 34 34
+ 0.42 1 4 cbr 1000 ------- 2 1.0 3.0 40 40
- 0.42 1 4 cbr 1000 ------- 2 1.0 3.0 40 40
r 0.4204 4 5 cbr 1000 ------- 2 1.0 3.0 36 36
+ 0.4204 5 3 cbr 1000 ------- 2 1.0 3.0 36 36
- 0.4204 5 3 cbr 1000 ------- 2 1.0 3.0 36 36
r 0.4228 1 4 cbr 1000 ------- 2 1.0 3.0 39 39
+ 0.4228 4 5 cbr 1000 ------- 2 1.0 3.0 39 39
- 0.4228 4 5 cbr 1000 ------- 2 1.0 3.0 39 39
r 0.4232 5 3 cbr 1000 ------- 2 1.0 3.0 35 35
+ 0.428 1 4 cbr 1000 ------- 2 1.0 3.0 41 41
- 0.428 1 4 cbr 1000 ------- 2 1.0 3.0 41 41
r 0.4284 4 5 cbr 1000 ------- 2 1.0 3.0 37 37
+ 0.4284 5 3 cbr 1000 ------- 2 1.0 3.0 37 37
- 0.4284 5 3 cbr 1000 ------- 2 1.0 3.0 37 37
r 0.4308 1 4 cbr 1000 ------- 2 1.0 3.0 40 40
+ 0.4308 4 5 cbr 1000 ------- 2 1.0 3.0 40 40
- 0.4308 4 5 cbr 1000 ------- 2 1.0 3.0 40 40
r 0.4312 5 3 cbr 1000 ------- 2 1.0 3.0 36 36
+ 0.436 1 4 cbr 1000 ------- 2 1.0 3.0 42 42
- 0.436 1 4 cbr 1000 ------- 2 1.0 3.0 42 42
r 0.4364 4 5 cbr 1000 ------- 2 1.0 3.0 38 38
+ 0.4364 5 3 cbr 1000 ------- 2 1.0 3.0 38 38
- 0.4364 5 3 cbr 1000 ------- 2 1.0 3.0 38 38
r 0.4388 1 4 cbr 1000 ------- 2 1.0 3.0 41 41
+ 0.4388 4 5 cbr 1000 ------- 2 1.0 3.0 41 41
- 0.4388 4 5 cbr 1000 ------- 2 1.0 3.0 41 41
r 0.4392 5 3 cbr 1000 ------- 2 1.0 3.0 37 37
+ 0.444 1 4 cbr 1000 ------- 2 1.0 3.0 43 43
- 0.444 1 4 cbr 1000 ------- 2 1.0 3.0 43 43
r 0.4444 4 5 cbr 1000 ------- 2 1.0 3.0 39 39
+ 0.4444 5 3 cbr 1000 ------- 2 1.0 3.0 39 39
- 0.4444 5 3 cbr 1000 ------- 2 1.0 3.0 39 39
r 0.4468 1 4 cbr 1000 ------- 2 1.0 3.0 42 42
+ 0.4468 4 5 cbr 1000 ------- 2 1.0 3.0 42 42
- 0.4468 4 5 cbr 1000 ------- 2 1.0 3.0 42 42
r 0.4472 5 3 cbr 1000 ------- 2 1.0 3.0 38 38
+ 0.452 1 4 cbr 1000 ------- 2 1.0 3.0 44 44
- 0.452 1 4 cbr 1000 ------- 2 1.0 3.0 44 44
r 0.4524 4 5 cbr 1000 ------- 2 1.0 3.0 40 40
+ 0.4524 5 3 cbr 1000 ------- 2 1.0 3.0 40 40
- 0.4524 5 3 cbr 1000 ------- 2 1.0 3.0 40 40
r 0.4548 1 4 cbr 1000 ------- 2 1.0 3.0 43 43
+ 0.4548 4 5 cbr 1000 ------- 2 1.0 3.0 43 43
- 0.4548 4 5 cbr 1000 ------- 2 1.0 3.0 43 43
r 0.4552 5 3 cbr 1000 ------- 2 1.0 3.0 39 39
+ 0.46 1 4 cbr 1000 ------- 2 1.0 3.0 45 45
- 0.46 1 4 cbr 1000 ------- 2 1.0 3.0 45 45
r 0.4604 4 5 cbr 1000 ------- 2 1.0 3.0 41 41
+ 0.4604 5 3 cbr 1000 ------- 2 1.0 3.0 41 41
- 0.4604 5 3 cbr 1000 ------- 2 1.0 3.0 41 41
r 0.4628 1 4 cbr 1000 ------- 2 1.0 3.0 44 44
+ 0.4628 4 5 cbr 1000 ------- 2 1.0 3.0 44 44
- 0.4628 4 5 cbr 1000 ------- 2 1.0 3.0 44 44
r 0.4632 5 3 cbr 1000 ------- 2 1.0 3.0 40 40
+ 0.468 1 4 cbr 1000 ------- 2 1.0 3.0 46 46
- 0.468 1 4 cbr 1000 ------- 2 1.0 3.0 46 46
r 0.4684 4 5 cbr 1000 ------- 2 1.0 3.0 42 42
+ 0.4684 5 3 cbr 1000 ------- 2 1.0 3.0 42 42
- 0.4684 5 3 cbr 1000 ------- 2 1.0 3.0 42 42
r 0.4708 1 4 cbr 1000 ------- 2 1.0 3.0 45 45
+ 0.4708 4 5 cbr 1000 ------- 2 1.0 3.0 45 45
- 0.4708 4 5 cbr 1000 ------- 2 1.0 3.0 45 45
r 0.4712 5 3 cbr 1000 ------- 2 1.0 3.0 41 41
+ 0.476 1 4 cbr 1000 ------- 2 1.0 3.0 47 47
- 0.476 1 4 cbr 1000 ------- 2 1.0 3.0 47 47
r 0.4764 4 5 cbr 1000 ------- 2 1.0 3.0 43 43
+ 0.4764 5 3 cbr 1000 ------- 2 1.0 3.0 43 43
- 0.4764 5 3 cbr 1000 ------- 2 1.0 3.0 43 43
r 0.4788 1 4 cbr 1000 ------- 2 1.0 3.0 46 46
+ 0.4788 4 5 cbr 1000 ------- 2 1.0 3.0 46 46
- 0.4788 4 5 cbr 1000 ------- 2 1.0 3.0 46 46
r 0.4792 5 3 cbr 1000 ------- 2 1.0 3.0 42 42
+ 0.484 1 4 cbr 1000 ------- 2 1.0 3.0 48 48
- 0.484 1 4 cbr 1000 ------- 2 1.0 3.0 48 48
r 0.4844 4 5 cbr 1000 ------- 2 1.0 3.0 44 44
+ 0.4844 5 3 cbr 1000 ------- 2 1.0 3.0 44 44
- 0.4844 5 3 cbr 1000 ------- 2 1.0 3.0 44 44
r 0.4868 1 4 cbr 1000 ------- 2 1.0 3.0 47 47
+ 0.4868 4 5 cbr 1000 ------- 2 1.0 3.0 47 47
- 0.4868 4 5 cbr 1000 ------- 2 1.0 3.0 47 47
r 0.4872 5 3 cbr 1000 ------- 2 1.0 3.0 43 43
+ 0.492 1 4 cbr 1000 ------- 2 1.0 3.0 49 49
- 0.492 1 4 cbr 1000 ------- 2 1.0 3.0 49 49
r 0.4924 4 5 cbr 1000 ------- 2 1.0 3.0 45 45
+ 0.4924 5 3 cbr 1000 ------- 2 1.0 3.0 45 45
- 0.4924 5 3 cbr 1000 ------- 2 1.0 3.0 45 45
r 0.4948 1 4 cbr 1000 ------- 2 1.0 3.0 48 48
+ 0.4948 4 5 cbr 1000 ------- 2 1.0 3.0 48 48
- 0.4948 4 5 cbr 1000 ------- 2 1.0 3.0 48 48
r 0.4952 5 3 cbr 1000 ------- 2 1.0 3.0 44 44
+ 0.5 1 4 cbr 1000 ------- 2 1.0 3.0 50 50
- 0.5 1 4 cbr 1000 ------- 2 1.0 3.0 50 50
r 0.5004 4 5 cbr 1000 ------- 2 1.0 3.0 46 46
+ 0.5004 5 3 cbr 1000 ------- 2 1.0 3.0 46 46
- 0.5004 5 3 cbr 1000 ------- 2 1.0 3.0 46 46
r 0.5028 1 4 cbr 1000 ------- 2 1.0 3.0 49 49
+ 0.5028 4 5 cbr 1000 ------- 2 1.0 3.0 49 49
- 0.5028 4 5 cbr 1000 ------- 2 1.0 3.0 49 49
r 0.5032 5 3 cbr 1000 ------- 2 1.0 3.0 45 45
+ 0.508 1 4 cbr 1000 ------- 2 1.0 3.0 51 51
- 0.508 1 4 cbr 1000 ------- 2 1.0 3.0 51 51
r 0.5084 4 5 cbr 1000 ------- 2 1.0 3.0 47 47
+ 0.5084 5 3 cbr 1000 ------- 2 1.0 3.0 47 47
- 0.5084 5 3 cbr 1000 ------- 2 1.0 3.0 47 47
r 0.5108 1 4 cbr 1000 ------- 2 1.0 3.0 50 50
+ 0.5108 4 5 cbr 1000 ------- 2 1.0 3.0 50 50
- 0.5108 4 5 cbr 1000 ------- 2 1.0 3.0 50 50
r 0.5112 5 3 cbr 1000 ------- 2 1.0 3.0 46 46
+ 0.516 1 4 cbr 1000 ------- 2 1.0 3.0 52 52
- 0.516 1 4 cbr 1000 ------- 2 1.0 3.0 52 52
r 0.5164 4 5 cbr 1000 ------- 2 1.0 3.0 48 48
+ 0.5164 5 3 cbr 1000 ------- 2 1.0 3.0 48 48
- 0.5164 5 3 cbr 1000 ------- 2 1.0 3.0 48 48
r 0.5188 1 4 cbr 1000 ------- 2 1.0 3.0 51 51
+ 0.5188 4 5 cbr 1000 ------- 2 1.0 3.0 51 51
- 0.5188 4 5 cbr 1000 ------- 2 1.0 3.0 51 51
r 0.5192 5 3 cbr 1000 ------- 2 1.0 3.0 47 47
+ 0.524 1 4 cbr 1000 ------- 2 1.0 3.0 53 53
- 0.524 1 4 cbr 1000 ------- 2 1.0 3.0 53 53
r 0.5244 4 5 cbr 1000 ------- 2 1.0 3.0 49 49
+ 0.5244 5 3 cbr 1000 ------- 2 1.0 3.0 49 49
- 0.5244 5 3 cbr 1000 ------- 2 1.0 3.0 49 49
r 0.5268 1 4 cbr 1000 ------- 2 1.0 3.0 52 52
+ 0.5268 4 5 cbr 1000 ------- 2 1.0 3.0 52 52
- 0.5268 4 5 cbr 1000 ------- 2 1.0 3.0 52 52
r 0.5272 5 3 cbr 1000 ------- 2 1.0 3.0 48 48
+ 0.532 1 4 cbr 1000 ------- 2 1.0 3.0 54 54
- 0.532 1 4 cbr 1000 ------- 2 1.0 3.0 54 54
r 0.5324 4 5 cbr 1000 ------- 2 1.0 3.0 50 50
+ 0.5324 5 3 cbr 1000 ------- 2 1.0 3.0 50 50
- 0.5324 5 3 cbr 1000 ------- 2 1.0 3.0 50 50
r 0.5348 1 4 cbr 1000 ------- 2 1.0 3.0 53 53
+ 0.5348 4 5 cbr 1000 ------- 2 1.0 3.0 53 53
- 0.5348 4 5 cbr 1000 ------- 2 1.0 3.0 53 53
r 0.5352 5 3 cbr 1000 ------- 2 1.0 3.0 49 49
+ 0.54 1 4 cbr 1000 ------- 2 1.0 3.0 55 55
- 0.54 1 4 cbr 1000 ------- 2 1.0 3.0 55 55
r 0.5404 4 5 cbr 1000 ------- 2 1.0 3.0 51 51
+ 0.5404 5 3 cbr 1000 ------- 2 1.0 3.0 51 51
- 0.5404 5 3 cbr 1000 ------- 2 1.0 3.0 51 51
r 0.5428 1 4 cbr 1000 ------- 2 1.0 3.0 54 54
+ 0.5428 4 5 cbr 1000 ------- 2 1.0 3.0 54 54
- 0.5428 4 5 cbr 1000 ------- 2 1.0 3.0 54 54
r 0.5432 5 3 cbr 1000 ------- 2 1.0 3.0 50 50
+ 0.548 1 4 cbr 1000 ------- 2 1.0 3.0 56 56
- 0.548 1 4 cbr 1000 ------- 2 1.0 3.0 56 56
r 0.5484 4 5 cbr 1000 ------- 2 1.0 3.0 52 52
+ 0.5484 5 3 cbr 1000 ------- 2 1.0 3.0 52 52
- 0.5484 5 3 cbr 1000 ------- 2 1.0 3.0 52 52
r 0.5508 1 4 cbr 1000 ------- 2 1.0 3.0 55 55
+ 0.5508 4 5 cbr 1000 ------- 2 1.0 3.0 55 55
- 0.5508 4 5 cbr 1000 ------- 2 1.0 3.0 55 55
r 0.5512 5 3 cbr 1000 ------- 2 1.0 3.0 51 51
+ 0.556 1 4 cbr 1000 ------- 2 1.0 3.0 57 57
- 0.556 1 4 cbr 1000 ------- 2 1.0 3.0 57 57
r 0.5564 4 5 cbr 1000 ------- 2 1.0 3.0 53 53
+ 0.5564 5 3 cbr 1000 ------- 2 1.0 3.0 53 53
- 0.5564 5 3 cbr 1000 ------- 2 1.0 3.0 53 53
r 0.5588 1 4 cbr 1000 ------- 2 1.0 3.0 56 56
+ 0.5588 4 5 cbr 1000 ------- 2 1.0 3.0 56 56
- 0.5588 4 5 cbr 1000 ------- 2 1.0 3.0 56 56
r 0.5592 5 3 cbr 1000 ------- 2 1.0 3.0 52 52
+ 0.564 1 4 cbr 1000 ------- 2 1.0 3.0 58 58
- 0.564 1 4 cbr 1000 ------- 2 1.0 3.0 58 58
r 0.5644 4 5 cbr 1000 ------- 2 1.0 3.0 54 54
+ 0.5644 5 3 cbr 1000 ------- 2 1.0 3.0 54 54
- 0.5644 5 3 cbr 1000 ------- 2 1.0 3.0 54 54
r 0.5668 1 4 cbr 1000 ------- 2 1.0 3.0 57 57
+ 0.5668 4 5 cbr 1000 ------- 2 1.0 3.0 57 57
- 0.5668 4 5 cbr 1000 ------- 2 1.0 3.0 57 57
r 0.5672 5 3 cbr 1000 ------- 2 1.0 3.0 53 53
+ 0.572 1 4 cbr 1000 ------- 2 1.0 3.0 59 59
- 0.572 1 4 cbr 1000 ------- 2 1.0 3.0 59 59
r 0.5724 4 5 cbr 1000 ------- 2 1.0 3.0 55 55
+ 0.5724 5 3 cbr 1000 ------- 2 1.0 3.0 55 55
- 0.5724 5 3 cbr 1000 ------- 2 1.0 3.0 55 55
r 0.5748 1 4 cbr 1000 ------- 2 1.0 3.0 58 58
+ 0.5748 4 5 cbr 1000 ------- 2 1.0 3.0 58 58
- 0.5748 4 5 cbr 1000 ------- 2 1.0 3.0 58 58
r 0.5752 5 3 cbr 1000 ------- 2 1.0 3.0 54 54
+ 0.58 1 4 cbr 1000 ------- 2 1.0 3.0 60 60
- 0.58 1 4 cbr 1000 ------- 2 1.0 3.0 60 60
r 0.5804 4 5 cbr 1000 ------- 2 1.0 3.0 56 56
+ 0.5804 5 3 cbr 1000 ------- 2 1.0 3.0 56 56
- 0.5804 5 3 cbr 1000 ------- 2 1.0 3.0 56 56
r 0.5828 1 4 cbr 1000 ------- 2 1.0 3.0 59 59
+ 0.5828 4 5 cbr 1000 ------- 2 1.0 3.0 59 59
- 0.5828 4 5 cbr 1000 ------- 2 1.0 3.0 59 59
r 0.5832 5 3 cbr 1000 ------- 2 1.0 3.0 55 55
+ 0.588 1 4 cbr 1000 ------- 2 1.0 3.0 61 61
- 0.588 1 4 cbr 1000 ------- 2 1.0 3.0 61 61
r 0.5884 4 5 cbr 1000 ------- 2 1.0 3.0 57 57
+ 0.5884 5 3 cbr 1000 ------- 2 1.0 3.0 57 57
- 0.5884 5 3 cbr 1000 ------- 2 1.0 3.0 57 57
r 0.5908 1 4 cbr 1000 ------- 2 1.0 3.0 60 60
+ 0.5908 4 5 cbr 1000 ------- 2 1.0 3.0 60 60
- 0.5908 4 5 cbr 1000 ------- 2 1.0 3.0 60 60
r 0.5912 5 3 cbr 1000 ------- 2 1.0 3.0 56 56
+ 0.596 1 4 cbr 1000 ------- 2 1.0 3.0 62 62
- 0.596 1 4 cbr 1000 ------- 2 1.0 3.0 62 62
r 0.5964 4 5 cbr 1000 ------- 2 1.0 3.0 58 58
+ 0.5964 5 3 cbr 1000 ------- 2 1.0 3.0 58 58
- 0.5964 5 3 cbr 1000 ------- 2 1.0 3.0 58 58
r 0.5988 1 4 cbr 1000 ------- 2 1.0 3.0 61 61
+ 0.5988 4 5 cbr 1000 ------- 2 1.0 3.0 61 61
- 0.5988 4 5 cbr 1000 ------- 2 1.0 3.0 61 61
r 0.5992 5 3 cbr 1000 ------- 2 1.0 3.0 57 57
+ 0.604 1 4 cbr 1000 ------- 2 1.0 3.0 63 63
- 0.604 1 4 cbr 1000 ------- 2 1.0 3.0 63 63
r 0.6044 4 5 cbr 1000 ------- 2 1.0 3.0 59 59
+ 0.6044 5 3 cbr 1000 ------- 2 1.0 3.0 59 59
- 0.6044 5 3 cbr 1000 ------- 2 1.0 3.0 59 59
r 0.6068 1 4 cbr 1000 ------- 2 1.0 3.0 62 62
+ 0.6068 4 5 cbr 1000 ------- 2 1.0 3.0 62 62
- 0.6068 4 5 cbr 1000 ------- 2 1.0 3.0 62 62
r 0.6072 5 3 cbr 1000 ------- 2 1.0 3.0 58 58
+ 0.612 1 4 cbr 1000 ------- 2 1.0 3.0 64 64
- 0.612 1 4 cbr 1000 ------- 2 1.0 3.0 64 64
r 0.6124 4 5 cbr 1000 ------- 2 1.0 3.0 60 60
+ 0.6124 5 3 cbr 1000 ------- 2 1.0 3.0 60 60
- 0.6124 5 3 cbr 1000 ------- 2 1.0 3.0 60 60
r 0.6148 1 4 cbr 1000 ------- 2 1.0 3.0 63 63
+ 0.6148 4 5 cbr 1000 ------- 2 1.0 3.0 63 63
- 0.6148 4 5 cbr 1000 ------- 2 1.0 3.0 63 63
r 0.6152 5 3 cbr 1000 ------- 2 1.0 3.0 59 59
+ 0.62 1 4 cbr 1000 ------- 2 1.0 3.0 65 65
- 0.62 1 4 cbr 1000 ------- 2 1.0 3.0 65 65
r 0.6204 4 5 cbr 1000 ------- 2 1.0 3.0 61 61
+ 0.6204 5 3 cbr 1000 ------- 2 1.0 3.0 61 61
- 0.6204 5 3 cbr 1000 ------- 2 1.0 3.0 61 61
r 0.6228 1 4 cbr 1000 ------- 2 1.0 3.0 64 64
+ 0.6228 4 5 cbr 1000 ------- 2 1.0 3.0 64 64
- 0.6228 4 5 cbr 1000 ------- 2 1.0 3.0 64 64
r 0.6232 5 3 cbr 1000 ------- 2 1.0 3.0 60 60
+ 0.628 1 4 cbr 1000 ------- 2 1.0 3.0 66 66
- 0.628 1 4 cbr 1000 ------- 2 1.0 3.0 66 66
r 0.6284 4 5 cbr 1000 ------- 2 1.0 3.0 62 62
+ 0.6284 5 3 cbr 1000 ------- 2 1.0 3.0 62 62
- 0.6284 5 3 cbr 1000 ------- 2 1.0 3.0 62 62
r 0.6308 1 4 cbr 1000 ------- 2 1.0 3.0 65 65
+ 0.6308 4 5 cbr 1000 ------- 2 1.0 3.0 65 65
- 0.6308 4 5 cbr 1000 ------- 2 1.0 3.0 65 65
r 0.6312 5 3 cbr 1000 ------- 2 1.0 3.0 61 61
+ 0.636 1 4 cbr 1000 ------- 2 1.0 3.0 67 67
- 0.636 1 4 cbr 1000 ------- 2 1.0 3.0 67 67
r 0.6364 4 5 cbr 1000 ------- 2 1.0 3.0 63 63
+ 0.6364 5 3 cbr 1000 ------- 2 1.0 3.0 63 63
- 0.6364 5 3 cbr 1000 ------- 2 1.0 3.0 63 63
r 0.6388 1 4 cbr 1000 ------- 2 1.0 3.0 66 66
+ 0.6388 4 5 cbr 1000 ------- 2 1.0 3.0 66 66
- 0.6388 4 5 cbr 1000 ------- 2 1.0 3.0 66 66
r 0.6392 5 3 cbr 1000 ------- 2 1.0 3.0 62 62
+ 0.644 1 4 cbr 1000 ------- 2 1.0 3.0 68 68
- 0.644 1 4 cbr 1000 ------- 2 1.0 3.0 68 68
r 0.6444 4 5 cbr 1000 ------- 2 1.0 3.0 64 64
+ 0.6444 5 3 cbr 1000 ------- 2 1.0 3.0 64 64
- 0.6444 5 3 cbr 1000 ------- 2 1.0 3.0 64 64
r 0.6468 1 4 cbr 1000 ------- 2 1.0 3.0 67 67
+ 0.6468 4 5 cbr 1000 ------- 2 1.0 3.0 67 67
- 0.6468 4 5 cbr 1000 ------- 2 1.0 3.0 67 67
r 0.6472 5 3 cbr 1000 ------- 2 1.0 3.0 63 63
+ 0.652 1 4 cbr 1000 ------- 2 1.0 3.0 69 69
- 0.652 1 4 cbr 1000 ------- 2 1.0 3.0 69 69
r 0.6524 4 5 cbr 1000 ------- 2 1.0 3.0 65 65
+ 0.6524 5 3 cbr 1000 ------- 2 1.0 3.0 65 65
- 0.6524 5 3 cbr 1000 ------- 2 1.0 3.0 65 65
r 0.6548 1 4 cbr 1000 ------- 2 1.0 3.0 68 68
+ 0.6548 4 5 cbr 1000 ------- 2 1.0 3.0 68 68
- 0.6548 4 5 cbr 1000 ------- 2 1.0 3.0 68 68
r 0.6552 5 3 cbr 1000 ------- 2 1.0 3.0 64 64
+ 0.66 1 4 cbr 1000 ------- 2 1.0 3.0 70 70
- 0.66 1 4 cbr 1000 ------- 2 1.0 3.0 70 70
r 0.6604 4 5 cbr 1000 ------- 2 1.0 3.0 66 66
+ 0.6604 5 3 cbr 1000 ------- 2 1.0 3.0 66 66
- 0.6604 5 3 cbr 1000 ------- 2 1.0 3.0 66 66
r 0.6628 1 4 cbr 1000 ------- 2 1.0 3.0 69 69
+ 0.6628 4 5 cbr 1000 ------- 2 1.0 3.0 69 69
- 0.6628 4 5 cbr 1000 ------- 2 1.0 3.0 69 69
r 0.6632 5 3 cbr 1000 ------- 2 1.0 3.0 65 65
+ 0.668 1 4 cbr 1000 ------- 2 1.0 3.0 71 71
- 0.668 1 4 cbr 1000 ------- 2 1.0 3.0 71 71
r 0.6684 4 5 cbr 1000 ------- 2 1.0 3.0 67 67
+ 0.6684 5 3 cbr 1000 ------- 2 1.0 3.0 67 67
- 0.6684 5 3 cbr 1000 ------- 2 1.0 3.0 67 67
r 0.6708 1 4 cbr 1000 ------- 2 1.0 3.0 70 70
+ 0.6708 4 5 cbr 1000 ------- 2 1.0 3.0 70 70
- 0.6708 4 5 cbr 1000 ------- 2 1.0 3.0 70 70
r 0.6712 5 3 cbr 1000 ------- 2 1.0 3.0 66 66
+ 0.676 1 4 cbr 1000 ------- 2 1.0 3.0 72 72
- 0.676 1 4 cbr 1000 ------- 2 1.0 3.0 72 72
r 0.6764 4 5 cbr 1000 ------- 2 1.0 3.0 68 68
+ 0.6764 5 3 cbr 1000 ------- 2 1.0 3.0 68 68
- 0.6764 5 3 cbr 1000 ------- 2 1.0 3.0 68 68
r 0.6788 1 4 cbr 1000 ------- 2 1.0 3.0 71 71
+ 0.6788 4 5 cbr 1000 ------- 2 1.0 3.0 71 71
- 0.6788 4 5 cbr 1000 ------- 2 1.0 3.0 71 71
r 0.6792 5 3 cbr 1000 ------- 2 1.0 3.0 67 67
+ 0.684 1 4 cbr 1000 ------- 2 1.0 3.0 73 73
- 0.684 1 4 cbr 1000 ------- 2 1.0 3.0 73 73
r 0.6844 4 5 cbr 1000 ------- 2 1.0 3.0 69 69
+ 0.6844 5 3 cbr 1000 ------- 2 1.0 3.0 69 69
- 0.6844 5 3 cbr 1000 ------- 2 1.0 3.0 69 69
r 0.6868 1 4 cbr 1000 ------- 2 1.0 3.0 72 72
+ 0.6868 4 5 cbr 1000 ------- 2 1.0 3.0 72 72
- 0.6868 4 5 cbr 1000 ------- 2 1.0 3.0 72 72
r 0.6872 5 3 cbr 1000 ------- 2 1.0 3.0 68 68
+ 0.692 1 4 cbr 1000 ------- 2 1.0 3.0 74 74
- 0.692 1 4 cbr 1000 ------- 2 1.0 3.0 74 74
r 0.6924 4 5 cbr 1000 ------- 2 1.0 3.0 70 70
+ 0.6924 5 3 cbr 1000 ------- 2 1.0 3.0 70 70
- 0.6924 5 3 cbr 1000 ------- 2 1.0 3.0 70 70
r 0.6948 1 4 cbr 1000 ------- 2 1.0 3.0 73 73
+ 0.6948 4 5 cbr 1000 ------- 2 1.0 3.0 73 73
- 0.6948 4 5 cbr 1000 ------- 2 1.0 3.0 73 73
r 0.6952 5 3 cbr 1000 ------- 2 1.0 3.0 69 69
+ 0.7 1 4 cbr 1000 ------- 2 1.0 3.0 75 75
- 0.7 1 4 cbr 1000 ------- 2 1.0 3.0 75 75
r 0.7004 4 5 cbr 1000 ------- 2 1.0 3.0 71 71
+ 0.7004 5 3 cbr 1000 ------- 2 1.0 3.0 71 71
- 0.7004 5 3 cbr 1000 ------- 2 1.0 3.0 71 71