+ 0.1 1 4 cbr 1000 ------- 2 1.0 3.0 0 0
- 0.1 1 4 cbr 1000 ------- 2 1.0 3.0 0 0
+ 0.108 1 4 cbr 1000 ------- 2 1.0 3.0 1 1
- 0.108 1 4 cbr 1000 ------- 2 1.0 3.0 1 1
r 0.114 1 4 cbr 1000 ------- 2 1.0 3.0 0 0
+ 0.114 4 5 cbr 1000 ------- 2 1.0 3.0 0 0
- 0.114 4 5 cbr 1000 ------- 2 1.0 3.0 0 0
+ 0.116 1 4 cbr 1000 ------- 2 1.0 3.0 2 2
- 0.116 1 4 cbr 1000 ------- 2 1.0 3.0 2 2
r 0.122 1 4 cbr 1000 ------- 2 1.0 3.0 1 1
+ 0.122 4 5 cbr 1000 ------- 2 1.0 3.0 1 1
- 0.122 4 5 cbr 1000 ------- 2 1.0 3.0 1 1
+ 0.124 1 4 cbr 1000 ------- 2 1.0 3.0 3 3
- 0.124 1 4 cbr 1000 ------- 2 1.0 3.0 3 3
r 0.13 1 4 cbr 1000 ------- 2 1.0 3.0 2 2
+ 0.13 4 5 cbr 1000 ------- 2 1.0 3.0 2 2
- 0.13 4 5 cbr 1000 ------- 2 1.0 3.0 2 2
+ 0.132 1 4 cbr 1000 ------- 2 1.0 3.0 4 4
- 0.132 1 4 cbr 1000 ------- 2 1.0 3.0 4 4
r 0.138 1 4 cbr 1000 ------- 2 1.0 3.0 3 3
+ 0.138 4 5 cbr 1000 ------- 2 1.0 3.0 3 3
- 0.138 4 5 cbr 1000 ------- 2 1.0 3.0 3 3
r 0.138706 4 5 cbr 1000 ------- 2 1.0 3.0 0 0
+ 0.138706 5 3 cbr 1000 ------- 2 1.0 3.0 0 0
- 0.138706 5 3 cbr 1000 ------- 2 1.0 3.0 0 0
+ 0.14 1 4 cbr 1000 ------- 2 1.0 3.0 5 5
- 0.14 1 4 cbr 1000 ------- 2 1.0 3.0 5 5
r 0.146 1 4 cbr 1000 ------- 2 1.0 3.0 4 4
+ 0.146 4 5 cbr 1000 ------- 2 1.0 3.0 4 4
- 0.146 4 5 cbr 1000 ------- 2 1.0 3.0 4 4
r 0.146706 4 5 cbr 1000 ------- 2 1.0 3.0 1 1
+ 0.146706 5 3 cbr 1000 ------- 2 1.0 3.0 1 1
- 0.146706 5 3 cbr 1000 ------- 2 1.0 3.0 1 1
+ 0.148 1 4 cbr 1000 ------- 2 1.0 3.0 6 6
- 0.148 1 4 cbr 1000 ------- 2 1.0 3.0 6 6
r 0.152706 5 3 cbr 1000 ------- 2 1.0 3.0 0 0
r 0.154 1 4 cbr 1000 ------- 2 1.0 3.0 5 5
+ 0.154 4 5 cbr 1000 ------- 2 1.0 3.0 5 5
- 0.154 4 5 cbr 1000 ------- 2 1.0 3.0 5 5
r 0.154706 4 5 cbr 1000 ------- 2 1.0 3.0 2 2
+ 0.154706 5 3 cbr 1000 ------- 2 1.0 3.0 2 2
- 0.154706 5 3 cbr 1000 ------- 2 1.0 3.0 2 2
+ 0.156 1 4 cbr 1000 ------- 2 1.0 3.0 7 7
- 0.156 1 4 cbr 1000 ------- 2 1.0 3.0 7 7
r 0.160706 5 3 cbr 1000 ------- 2 1.0 3.0 1 1
r 0.162 1 4 cbr 1000 ------- 2 1.0 3.0 6 6
+ 0.162 4 5 cbr 1000 ------- 2 1.0 3.0 6 6
- 0.162 4 5 cbr 1000 ------- 2 1.0 3.0 6 6
r 0.162706 4 5 cbr 1000 ------- 2 1.0 3.0 3 3
+ 0.162706 5 3 cbr 1000 ------- 2 1.0 3.0 3 3
- 0.162706 5 3 cbr 1000 ------- 2 1.0 3.0 3 3
+ 0.164 1 4 cbr 1000 ------- 2 1.0 3.0 8 8
- 0.164 1 4 cbr 1000 ------- 2 1.0 3.0 8 8
r 0.168706 5 3 cbr 1000 ------- 2 1.0 3.0 2 2
r 0.17 1 4 cbr 1000 ------- 2 1.0 3.0 7 7
+ 0.17 4 5 cbr 1000 ------- 2 1.0 3.0 7 7
- 0.17 4 5 cbr 1000 ------- 2 1.0 3.0 7 7
r 0.170706 4 5 cbr 1000 ------- 2 1.0 3.0 4 4
+ 0.170706 5 3 cbr 1000 ------- 2 1.0 3.0 4 4
- 0.170706 5 3 cbr 1000 ------- 2 1.0 3.0 4 4
+ 0.172 1 4 cbr 1000 ------- 2 1.0 3.0 9 9
- 0.172 1 4 cbr 1000 ------- 2 1.0 3.0 9 9
r 0.176706 5 3 cbr 1000 ------- 2 1.0 3.0 3 3
r 0.178 1 4 cbr 1000 ------- 2 1.0 3.0 8 8
+ 0.178 4 5 cbr 1000 ------- 2 1.0 3.0 8 8
- 0.178 4 5 cbr 1000 ------- 2 1.0 3.0 8 8
r 0.178706 4 5 cbr 1000 ------- 2 1.0 3.0 5 5
+ 0.178706 5 3 cbr 1000 ------- 2 1.0 3.0 5 5
- 0.178706 5 3 cbr 1000 ------- 2 1.0 3.0 5 5
+ 0.18 1 4 cbr 1000 ------- 2 1.0 3.0 10 10
- 0.18 1 4 cbr 1000 ------- 2 1.0 3.0 10 10
r 0.184706 5 3 cbr 1000 ------- 2 1.0 3.0 4 4
r 0.186 1 4 cbr 1000 ------- 2 1.0 3.0 9 9
+ 0.186 4 5 cbr 1000 ------- 2 1.0 3.0 9 9
- 0.186 4 5 cbr 1000 ------- 2 1.0 3.0 9 9
r 0.186706 4 5 cbr 1000 ------- 2 1.0 3.0 6 6
+ 0.186706 5 3 cbr 1000 ------- 2 1.0 3.0 6 6
- 0.186706 5 3 cbr 1000 ------- 2 1.0 3.0 6 6
+ 0.188 1 4 cbr 1000 ------- 2 1.0 3.0 11 11
- 0.188 1 4 cbr 1000 ------- 2 1.0 3.0 11 11
r 0.192706 5 3 cbr 1000 ------- 2 1.0 3.0 5 5
r 0.194 1 4 cbr 1000 ------- 2 1.0 3.0 10 10
+ 0.194 4 5 cbr 1000 ------- 2 1.0 3.0 10 10
- 0.194 4 5 cbr 1000 ------- 2 1.0 3.0 10 10
r 0.194706 4 5 cbr 1000 ------- 2 1.0 3.0 7 7
+ 0.194706 5 3 cbr 1000 ------- 2 1.0 3.0 7 7
- 0.194706 5 3 cbr 1000 ------- 2 1.0 3.0 7 7
+ 0.196 1 4 cbr 1000 ------- 2 1.0 3.0 12 12
- 0.196 1 4 cbr 1000 ------- 2 1.0 3.0 12 12
r 0.200706 5 3 cbr 1000 ------- 2 1.0 3.0 6 6
r 0.202 1 4 cbr 1000 ------- 2 1.0 3.0 11 11
+ 0.202 4 5 cbr 1000 ------- 2 1.0 3.0 11 11
- 0.202 4 5 cbr 1000 ------- 2 1.0 3.0 11 11
r 0.202706 4 5 cbr 1000 ------- 2 1.0 3.0 8 8
+ 0.202706 5 3 cbr 1000 ------- 2 1.0 3.0 8 8
- 0.202706 5 3 cbr 1000 ------- 2 1.0 3.0 8 8
+ 0.204 1 4 cbr 1000 ------- 2 1.0 3.0 13 13
- 0.204 1 4 cbr 1000 ------- 2 1.0 3.0 13 13
r 0.208706 5 3 cbr 1000 ------- 2 1.0 3.0 7 7
r 0.21 1 4 cbr 1000 ------- 2 1.0 3.0 12 12
+ 0.21 4 5 cbr 1000 ------- 2 1.0 3.0 12 12
- 0.21 4 5 cbr 1000 ------- 2 1.0 3.0 12 12
r 0.210706 4 5 cbr 1000 ------- 2 1.0 3.0 9 9
+ 0.210706 5 3 cbr 1000 ------- 2 1.0 3.0 9 9
- 0.210706 5 3 cbr 1000 ------- 2 1.0 3.0 9 9
+ 0.212 1 4 cbr 1000 ------- 2 1.0 3.0 14 14
- 0.212 1 4 cbr 1000 ------- 2 1.0 3.0 14 14
r 0.216706 5 3 cbr 1000 ------- 2 1.0 3.0 8 8
r 0.218 1 4 cbr 1000 ------- 2 1.0 3.0 13 13
+ 0.218 4 5 cbr 1000 ------- 2 1.0 3.0 13 13
- 0.218 4 5 cbr 1000 ------- 2 1.0 3.0 13 13
r 0.218706 4 5 cbr 1000 ------- 2 1.0 3.0 10 10
+ 0.218706 5 3 cbr 1000 ------- 2 1.0 3.0 10 10
- 0.218706 5 3 cbr 1000 ------- 2 1.0 3.0 10 10
+ 0.22 1 4 cbr 1000 ------- 2 1.0 3.0 15 15
- 0.22 1 4 cbr 1000 ------- 2 1.0 3.0 15 15
r 0.224706 5 3 cbr 1000 ------- 2 1.0 3.0 9 9
r 0.226 1 4 cbr 1000 ------- 2 1.0 3.0 14 14
+ 0.226 4 5 cbr 1000 ------- 2 1.0 3.0 14 14
- 0.226 4 5 cbr 1000 ------- 2 1.0 3.0 14 14
r 0.226706 4 5 cbr 1000 ------- 2 1.0 3.0 11 11
+ 0.226706 5 3 cbr 1000 ------- 2 1.0 3.0 11 11
- 0.226706 5 3 cbr 1000 ------- 2 1.0 3.0 11 11
+ 0.228 1 4 cbr 1000 ------- 2 1.0 3.0 16 16
- 0.228 1 4 cbr 1000 ------- 2 1.0 3.0 16 16
r 0.232706 5 3 cbr 1000 ------- 2 1.0 3.0 10 10
r 0.234 1 4 cbr 1000 ------- 2 1.0 3.0 15 15
+ 0.234 4 5 cbr 1000 ------- 2 1.0 3.0 15 15
- 0.234 4 5 cbr 1000 ------- 2 1.0 3.0 15 15
r 0.234706 4 5 cbr 1000 ------- 2 1.0 3.0 12 12
+ 0.234706 5 3 cbr 1000 ------- 2 1.0 3.0 12 12
- 0.234706 5 3 cbr 1000 ------- 2 1.0 3.0 12 12
+ 0.236 1 4 cbr 1000 ------- 2 1.0 3.0 17 17
- 0.236 1 4 cbr 1000 ------- 2 1.0 3.0 17 17
r 0.240706 5 3 cbr 1000 ------- 2 1.0 3.0 11 11
r 0.242 1 4 cbr 1000 ------- 2 1.0 3.0 16 16
+ 0.242 4 5 cbr 1000 ------- 2 1.0 3.0 16 16
- 0.242 4 5 cbr 1000 ------- 2 1.0 3.0 16 16
r 0.242706 4 5 cbr 1000 ------- 2 1.0 3.0 13 13
+ 0.242706 5 3 cbr 1000 ------- 2 1.0 3.0 13 13
- 0.242706 5 3 cbr 1000 ------- 2 1.0 3.0 13 13
+ 0.244 1 4 cbr 1000 ------- 2 1.0 3.0 18 18
- 0.244 1 4 cbr 1000 ------- 2 1.0 3.0 18 18
r 0.248706 5 3 cbr 1000 ------- 2 1.0 3.0 12 12
r 0.25 1 4 cbr 1000 ------- 2 1.0 3.0 17 17
+ 0.25 4 5 cbr 1000 ------- 2 1.0 3.0 17 17
- 0.25 4 5 cbr 1000 ------- 2 1.0 3.0 17 17
r 0.250706 4 5 cbr 1000 ------- 2 1.0 3.0 14 14
+ 0.250706 5 3 cbr 1000 ------- 2 1.0 3.0 14 14
- 0.250706 5 3 cbr 1000 ------- 2 1.0 3.0 14 14
+ 0.252 1 4 cbr 1000 ------- 2 1.0 3.0 19 19
- 0.252 1 4 cbr 1000 ------- 2 1.0 3.0 19 19
r 0.256706 5 3 cbr 1000 ------- 2 1.0 3.0 13 13
r 0.258 1 4 cbr 1000 ------- 2 1.0 3.0 18 18
+ 0.258 4 5 cbr 1000 ------- 2 1.0 3.0 18 18
- 0.258 4 5 cbr 1000 ------- 2 1.0 3.0 18 18
r 0.258706 4 5 cbr 1000 ------- 2 1.0 3.0 15 15
+ 0.258706 5 3 cbr 1000 ------- 2 1.0 3.0 15 15
- 0.258706 5 3 cbr 1000 ------- 2 1.0 3.0 15 15
+ 0.26 1 4 cbr 1000 ------- 2 1.0 3.0 20 20
- 0.26 1 4 cbr 1000 ------- 2 1.0 3.0 20 20
r 0.264706 5 3 cbr 1000 ------- 2 1.0 3.0 14 14
r 0.266 1 4 cbr 1000 ------- 2 1.0 3.0 19 19
+ 0.266 4 5 cbr 1000 ------- 2 1.0 3.0 19 19
- 0.266 4 5 cbr 1000 ------- 2 1.0 3.0 19 19
r 0.266706 4 5 cbr 1000 ------- 2 1.0 3.0 16 16
+ 0.266706 5 3 cbr 1000 ------- 2 1.0 3.0 16 16
- 0.266706 5 3 cbr 1000 ------- 2 1.0 3.0 16 16
+ 0.268 1 4 cbr 1000 ------- 2 1.0 3.0 21 21
- 0.268 1 4 cbr 1000 ------- 2 1.0 3.0 21 21
r 0.272706 5 3 cbr 1000 ------- 2 1.0 3.0 15 15
r 0.274 1 4 cbr 1000 ------- 2 1.0 3.0 20 20
+ 0.274 4 5 cbr 1000 ------- 2 1.0 3.0 20 20
- 0.274 4 5 cbr 1000 ------- 2 1.0 3.0 20 20
r 0.274706 4 5 cbr 1000 ------- 2 1.0 3.0 17 17
+ 0.274706 5 3 cbr 1000 ------- 2 1.0 3.0 17 17
- 0.274706 5 3 cbr 1000 ------- 2 1.0 3.0 17 17
+ 0.276 1 4 cbr 1000 ------- 2 1.0 3.0 22 22
- 0.276 1 4 cbr 1000 ------- 2 1.0 3.0 22 22
r 0.280706 5 3 cbr 1000 ------- 2 1.0 3.0 16 16
r 0.282 1 4 cbr 1000 ------- 2 1.0 3.0 21 21
+ 0.282 4 5 cbr 1000 ------- 2 1.0 3.0 21 21
- 0.282 4 5 cbr 1000 ------- 2 1.0 3.0 21 21
r 0.282706 4 5 cbr 1000 ------- 2 1.0 3.0 18 18
+ 0.282706 5 3 cbr 1000 ------- 2 1.0 3.0 18 18
- 0.282706 5 3 cbr 1000 ------- 2 1.0 3.0 18 18
+ 0.284 1 4 cbr 1000 ------- 2 1.0 3.0 23 23
- 0.284 1 4 cbr 1000 ------- 2 1.0 3.0 23 23
r 0.288706 5 3 cbr 1000 ------- 2 1.0 3.0 17 17
r 0.29 1 4 cbr 1000 ------- 2 1.0 3.0 22 22
+ 0.29 4 5 cbr 1000 ------- 2 1.0 3.0 22 22
- 0.29 4 5 cbr 1000 ------- 2 1.0 3.0 22 22
r 0.290706 4 5 cbr 1000 ------- 2 1.0 3.0 19 19
+ 0.290706 5 3 cbr 1000 ------- 2 1.0 3.0 19 19
- 0.290706 5 3 cbr 1000 ------- 2 1.0 3.0 19 19
+ 0.292 1 4 cbr 1000 ------- 2 1.0 3.0 24 24
- 0.292 1 4 cbr 1000 ------- 2 1.0 3.0 24 24
r 0.296706 5 3 cbr 1000 ------- 2 1.0 3.0 18 18
r 0.298 1 4 cbr 1000 ------- 2 1.0 3.0 23 23
+ 0.298 4 5 cbr 1000 ------- 2 1.0 3.0 23 23
- 0.298 4 5 cbr 1000 ------- 2 1.0 3.0 23 23
r 0.298706 4 5 cbr 1000 ------- 2 1.0 3.0 20 20
+ 0.298706 5 3 cbr 1000 ------- 2 1.0 3.0 20 20
- 0.298706 5 3 cbr 1000 ------- 2 1.0 3.0 20 20
+ 0.3 1 4 cbr 1000 ------- 2 1.0 3.0 25 25
- 0.3 1 4 cbr 1000 ------- 2 1.0 3.0 25 25
r 0.304706 5 3 cbr 1000 ------- 2 1.0 3.0 19 19
r 0.306 1 4 cbr 1000 ------- 2 1.0 3.0 24 24
+ 0.306 4 5 cbr 1000 ------- 2 1.0 3.0 24 24
- 0.306 4 5 cbr 1000 ------- 2 1.0 3.0 24 24
r 0.306706 4 5 cbr 1000 ------- 2 1.0 3.0 21 21
+ 0.306706 5 3 cbr 1000 ------- 2 1.0 3.0 21 21
- 0.306706 5 3 cbr 1000 ------- 2 1.0 3.0 21 21
+ 0.308 1 4 cbr 1000 ------- 2 1.0 3.0 26 26
- 0.308 1 4 cbr 1000 ------- 2 1.0 3.0 26 26
r 0.312706 5 3 cbr 1000 ------- 2 1.0 3.0 20 20
r 0.314 1 4 cbr 1000 ------- 2 1.0 3.0 25 25
+ 0.314 4 5 cbr 1000 ------- 2 1.0 3.0 25 25
- 0.314 4 5 cbr 1000 ------- 2 1.0 3.0 25 25
r 0.314706 4 5 cbr 1000 ------- 2 1.0 3.0 22 22
+ 0.314706 5 3 cbr 1000 ------- 2 1.0 3.0 22 22
- 0.314706 5 3 cbr 1000 ------- 2 1.0 3.0 22 22
+ 0.316 1 4 cbr 1000 ------- 2 1.0 3.0 27 27
- 0.316 1 4 cbr 1000 ------- 2 1.0 3.0 27 27
r 0.320706 5 3 cbr 1000 ------- 2 1.0 3.0 21 21
r 0.322 1 4 cbr 1000 ------- 2 1.0 3.0 26 26
+ 0.322 4 5 cbr 1000 ------- 2 1.0 3.0 26 26
- 0.322 4 5 cbr 1000 ------- 2 1.0 3.0 26 26
r 0.322706 4 5 cbr 1000 ------- 2 1.0 3.0 23 23
+ 0.322706 5 3 cbr 1000 ------- 2 1.0 3.0 23 23
- 0.322706 5 3 cbr 1000 ------- 2 1.0 3.0 23 23
+ 0.324 1 4 cbr 1000 ------- 2 1.0 3.0 28 28
- 0.324 1 4 cbr 1000 ------- 2 1.0 3.0 28 28
r 0.328706 5 3 cbr 1000 ------- 2 1.0 3.0 22 22
r 0.33 1 4 cbr 1000 ------- 2 1.0 3.0 27 27
+ 0.33 4 5 cbr 1000 ------- 2 1.0 3.0 27 27
- 0.33 4 5 cbr 1000 ------- 2 1.0 3.0 27 27
r 0.330706 4 5 cbr 1000 ------- 2 1.0 3.0 24 24
+ 0.330706 5 3 cbr 1000 ------- 2 1.0 3.0 24 24
- 0.330706 5 3 cbr 1000 ------- 2 1.0 3.0 24 24
+ 0.332 1 4 cbr 1000 ------- 2 1.0 3.0 29 29
- 0.332 1 4 cbr 1000 ------- 2 1.0 3.0 29 29
r 0.336706 5 3 cbr 1000 ------- 2 1.0 3.0 23 23
r 0.338 1 4 cbr 1000 ------- 2 1.0 3.0 28 28
+ 0.338 4 5 cbr 1000 ------- 2 1.0 3.0 28 28
- 0.338 4 5 cbr 1000 ------- 2 1.0 3.0 28 28
r 0.338706 4 5 cbr 1000 ------- 2 1.0 3.0 25 25
+ 0.338706 5 3 cbr 1000 ------- 2 1.0 3.0 25 25
- 0.338706 5 3 cbr 1000 ------- 2 1.0 3.0 25 25
+ 0.34 1 4 cbr 1000 ------- 2 1.0 3.0 30 30
- 0.34 1 4 cbr 1000 ------- 2 1.0 3.0 30 30
r 0.344706 5 3 cbr 1000 ------- 2 1.0 3.0 24 24
r 0.346 1 4 cbr 1000 ------- 2 1.0 3.0 29 29
+ 0.346 4 5 cbr 1000 ------- 2 1.0 3.0 29 29
- 0.346 4 5 cbr 1000 ------- 2 1.0 3.0 29 29
r 0.346706 4 5 cbr 1000 ------- 2 1.0 3.0 26 26
+ 0.346706 5 3 cbr 1000 ------- 2 1.0 3.0 26 26
- 0.346706 5 3 cbr 1000 ------- 2 1.0 3.0 26 26
+ 0.348 1 4 cbr 1000 ------- 2 1.0 3.0 31 31
- 0.348 1 4 cbr 1000 ------- 2 1.0 3.0 31 31
r 0.352706 5 3 cbr 1000 ------- 2 1.0 3.0 25 25
r 0.354 1 4 cbr 1000 ------- 2 1.0 3.0 30 30
+ 0.354 4 5 cbr 1000 ------- 2 1.0 3.0 30 30
- 0.354 4 5 cbr 1000 ------- 2 1.0 3.0 30 30
r 0.354706 4 5 cbr 1000 ------- 2 1.0 3.0 27 27
+ 0.354706 5 3 cbr 1000 ------- 2 1.0 3.0 27 27
- 0.354706 5 3 cbr 1000 ------- 2 1.0 3.0 27 27
+ 0.356 1 4 cbr 1000 ------- 2 1.0 3.0 32 32
- 0.356 1 4 cbr 1000 ------- 2 1.0 3.0 32 32
r 0.360706 5 3 cbr 1000 ------- 2 1.0 3.0 26 26
r 0.362 1 4 cbr 1000 ------- 2 1.0 3.0 31 31
+ 0.362 4 5 cbr 1000 ------- 2 1.0 3.0 31 31
- 0.362 4 5 cbr 1000 ------- 2 1.0 3.0 31 31
r 0.362706 4 5 cbr 1000 ------- 2 1.0 3.0 28 28
+ 0.362706 5 3 cbr 1000 ------- 2 1.0 3.0 28 28
- 0.362706 5 3 cbr 1000 ------- 2 1.0 3.0 28 28
+ 0.364 1 4 cbr 1000 ------- 2 1.0 3.0 33 33
- 0.364 1 4 cbr 1000 ------- 2 1.0 3.0 33 33
r 0.368706 5 3 cbr 1000 ------- 2 1.0 3.0 27 27
r 0.37 1 4 cbr 1000 ------- 2 1.0 3.0 32 32
+ 0.37 4 5 cbr 1000 ------- 2 1.0 3.0 32 32
- 0.37 4 5 cbr 1000 ------- 2 1.0 3.0 32 32
r 0.370706 4 5 cbr 1000 ------- 2 1.0 3.0 29 29
+ 0.370706 5 3 cbr 1000 ------- 2 1.0 3.0 29 29
- 0.370706 5 3 cbr 1000 ------- 2 1.0 3.0 29 29
+ 0.372 1 4 cbr 1000 ------- 2 1.0 3.0 34 34
- 0.372 1 4 cbr 1000 ------- 2 1.0 3.0 34 34
r 0.376706 5 3 cbr 1000 ------- 2 1.0 3.0 28 28
r 0.378 1 4 cbr 1000 ------- 2 1.0 3.0 33 33
+ 0.378 4 5 cbr 1000 ------- 2 1.0 3.0 33 33
- 0.378 4 5 cbr 1000 ------- 2 1.0 3.0 33 33
r 0.378706 4 5 cbr 1000 ------- 2 1.0 3.0 30 30
+ 0.378706 5 3 cbr 1000 ------- 2 1.0 3.0 30 30
- 0.378706 5 3 cbr 1000 ------- 2 1.0 3.0 30 30
+ 0.38 1 4 cbr 1000 ------- 2 1.0 3.0 35 35
- 0.38 1 4 cbr 1000 ------- 2 1.0 3.0 35 35
r 0.384706 5 3 cbr 1000 ------- 2 1.0 3.0 29 29
r 0.386 1 4 cbr 1000 ------- 2 1.0 3.0 34 34
+ 0.386 4 5 cbr 1000 ------- 2 1.0 3.0 34 34
- 0.386 4 5 cbr 1000 ------- 2 1.0 3.0 34 34
r 0.386706 4 5 cbr 1000 ------- 2 1.0 3.0 31 31
+ 0.386706 5 3 cbr 1000 ------- 2 1.0 3.0 31 31
- 0.386706 5 3 cbr 1000 ------- 2 1.0 3.0 31 31
+ 0.388 1 4 cbr 1000 ------- 2 1.0 3.0 36 36
- 0.388 1 4 cbr 1000 ------- 2 1.0 3.0 36 36
r 0.392706 5 3 cbr 1000 ------- 2 1.0 3.0 30 30
r 0.394 1 4 cbr 1000 ------- 2 1.0 3.0 35 35
+ 0.394 4 5 cbr 1000 ------- 2 1.0 3.0 35 35
- 0.394 4 5 cbr 1000 ------- 2 1.0 3.0 35 35
r 0.394706 4 5 cbr 1000 ------- 2 1.0 3.0 32 32
+ 0.394706 5 3 cbr 1000 ------- 2 1.0 3.0 32 32
- 0.394706 5 3 cbr 1000 ------- 2 1.0 3.0 32 32
+ 0.396 1 4 cbr 1000 ------- 2 1.0 3.0 37 37
- 0.396 1 4 cbr 1000 ------- 2 1.0 3.0 37 37
r 0.400706 5 3 cbr 1000 ------- 2 1.0 3.0 31 31
r 0.402 1 4 cbr 1000 ------- 2 1.0 3.0 36 36
+ 0.402 4 5 cbr 1000 ------- 2 1.0 3.0 36 36
- 0.402 4 5 cbr 1000 ------- 2 1.0 3.0 36 36
r 0.402706 4 5 cbr 1000 ------- 2 1.0 3.0 33 33
+ 0.402706 5 3 cbr 1000 ------- 2 1.0 3.0 33 33
- 0.402706 5 3 cbr 1000 ------- 2 1.0 3.0 33 33
+ 0.404 1 4 cbr 1000 ------- 2 1.0 3.0 38 38
- 0.404 1 4 cbr 1000 ------- 2 1.0 3.0 38 38
r 0.408706 5 3 cbr 1000 ------- 2 1.0 3.0 32 32
r 0.41 1 4 cbr 1000 ------- 2 1.0 3.0 37 37
+ 0.41 4 5 cbr 1000 ------- 2 1.0 3.0 37 37
- 0.41 4 5 cbr 1000 ------- 2 1.0 3.0 37 37
r 0.410706 4 5 cbr 1000 ------- 2 1.0 3.0 34 34
+ 0.410706 5 3 cbr 1000 ------- 2 1.0 3.0 34 34
- 0.410706 5 3 cbr 1000 ------- 2 1.0 3.0 34 34
+ 0.412 1 4 cbr 1000 ------- 2 1.0 3.0 39 39
- 0.412 1 4 cbr 1000 ------- 2 1.0 3.0 39 39
r 0.416706 5 3 cbr 1000 ------- 2 1.0 3.0 33 33
r 0.418 1 4 cbr 1000 ------- 2 1.0 3.0 38 38
+ 0.418 4 5 cbr 1000 ------- 2 1.0 3.0 38 38
- 0.418 4 5 cbr 1000 ------- 2 1.0 3.0 38 38
r 0.418706 4 5 cbr 1000 ------- 2 1.0 3.0 35 35
+ 0.418706 5 3 cbr 1000 ------- 2 1.0 3.0 35 35
- 0.418706 5 3 cbr 1000 ------- 2 1.0 3.0 35 35
+ 0.42 1 4 cbr 1000 ------- 2 1.0 3.0 40 40
- 0.42 1 4 cbr 1000 ------- 2 1.0 3.0 40 40
r 0.424706 5 3 cbr 1000 ------- 2 1.0 3.0 34 34
r 0.426 1 4 cbr 1000 ------- 2 1.0 3.0 39 39
+ 0.426 4 5 cbr 1000 ------- 2 1.0 3.0 39 39
- 0.426 4 5 cbr 1000 ------- 2 1.0 3.0 39 39
r 0.426706 4 5 cbr 1000 ------- 2 1.0 3.0 36 36
+ 0.426706 5 3 cbr 1000 ------- 2 1.0 3.0 36 36
- 0.426706 5 3 cbr 1000 ------- 2 1.0 3.0 36 36
+ 0.428 1 4 cbr 1000 ------- 2 1.0 3.0 41 41
- 0.428 1 4 cbr 1000 ------- 2 1.0 3.0 41 41
r 0.432706 5 3 cbr 1000 ------- 2 1.0 3.0 35 35
r 0.434 1 4 cbr 1000 ------- 2 1.0 3.0 40 40
+ 0.434 4 5 cbr 1000 ------- 2 1.0 3.0 40 40
- 0.434 4 5 cbr 1000 ------- 2 1.0 3.0 40 40
r 0.434706 4 5 cbr 1000 ------- 2 1.0 3.0 37 37
+ 0.434706 5 3 cbr 1000 ------- 2 1.0 3.0 37 37
- 0.434706 5 3 cbr 1000 ------- 2 1.0 3.0 37 37
+ 0.436 1 4 cbr 1000 ------- 2 1.0 3.0 42 42
- 0.436 1 4 cbr 1000 ------- 2 1.0 3.0 42 42
r 0.440706 5 3 cbr 1000 ------- 2 1.0 3.0 36 36
r 0.442 1 4 cbr 1000 ------- 2 1.0 3.0 41 41
+ 0.442 4 5 cbr 1000 ------- 2 1.0 3.0 41 41
- 0.442 4 5 cbr 1000 ------- 2 1.0 3.0 41 41
r 0.442706 4 5 cbr 1000 ------- 2 1.0 3.0 38 38
+ 0.442706 5 3 cbr 1000 ------- 2 1.0 3.0 38 38
- 0.442706 5 3 cbr 1000 ------- 2 1.0 3.0 38 38
+ 0.444 1 4 cbr 1000 ------- 2 1.0 3.0 43 43
- 0.444 1 4 cbr 1000 ------- 2 1.0 3.0 43 43
r 0.448706 5 3 cbr 1000 ------- 2 1.0 3.0 37 37
r 0.45 1 4 cbr 1000 ------- 2 1.0 3.0 42 42
+ 0.45 4 5 cbr 1000 ------- 2 1.0 3.0 42 42
- 0.45 4 5 cbr 1000 ------- 2 1.0 3.0 42 42
r 0.450706 4 5 cbr 1000 ------- 2 1.0 3.0 39 39
+ 0.450706 5 3 cbr 1000 ------- 2 1.0 3.0 39 39
- 0.450706 5 3 cbr 1000 ------- 2 1.0 3.0 39 39
+ 0.452 1 4 cbr 1000 ------- 2 1.0 3.0 44 44
- 0.452 1 4 cbr 1000 ------- 2 1.0 3.0 44 44
r 0.456706 5 3 cbr 1000 ------- 2 1.0 3.0 38 38
r 0.458 1 4 cbr 1000 ------- 2 1.0 3.0 43 43
+ 0.458 4 5 cbr 1000 ------- 2 1.0 3.0 43 43
- 0.458 4 5 cbr 1000 ------- 2 1.0 3.0 43 43
r 0.458706 4 5 cbr 1000 ------- 2 1.0 3.0 40 40
+ 0.458706 5 3 cbr 1000 ------- 2 1.0 3.0 40 40
- 0.458706 5 3 cbr 1000 ------- 2 1.0 3.0 40 40
+ 0.46 1 4 cbr 1000 ------- 2 1.0 3.0 45 45
- 0.46 1 4 cbr 1000 ------- 2 1.0 3.0 45 45
r 0.464706 5 3 cbr 1000 ------- 2 1.0 3.0 39 39
r 0.466 1 4 cbr 1000 ------- 2 1.0 3.0 44 44
+ 0.466 4 5 cbr 1000 ------- 2 1.0 3.0 44 44
- 0.466 4 5 cbr 1000 ------- 2 1.0 3.0 44 44
r 0.466706 4 5 cbr 1000 ------- 2 1.0 3.0 41 41
+ 0.466706 5 3 cbr 1000 ------- 2 1.0 3.0 41 41
- 0.466706 5 3 cbr 1000 ------- 2 1.0 3.0 41 41
+ 0.468 1 4 cbr 1000 ------- 2 1.0 3.0 46 46
- 0.468 1 4 cbr 1000 ------- 2 1.0 3.0 46 46
r 0.472706 5 3 cbr 1000 ------- 2 1.0 3.0 40 40
r 0.474 1 4 cbr 1000 ------- 2 1.0 3.0 45 45
+ 0.474 4 5 cbr 1000 ------- 2 1.0 3.0 45 45
- 0.474 4 5 cbr 1000 ------- 2 1.0 3.0 45 45
r 0.474706 4 5 cbr 1000 ------- 2 1.0 3.0 42 42
+ 0.474706 5 3 cbr 1000 ------- 2 1.0 3.0 42 42
- 0.474706 5 3 cbr 1000 ------- 2 1.0 3.0 42 42
+ 0.476 1 4 cbr 1000 ------- 2 1.0 3.0 47 47
- 0.476 1 4 cbr 1000 ------- 2 1.0 3.0 47 47
r 0.480706 5 3 cbr 1000 ------- 2 1.0 3.0 41 41
r 0.482 1 4 cbr 1000 ------- 2 1.0 3.0 46 46
+ 0.482 4 5 cbr 1000 ------- 2 1.0 3.0 46 46
- 0.482 4 5 cbr 1000 ------- 2 1.0 3.0 46 46
r 0.482706 4 5 cbr 1000 ------- 2 1.0 3.0 43 43
+ 0.482706 5 3 cbr 1000 ------- 2 1.0 3.0 43 43
- 0.482706 5 3 cbr 1000 ------- 2 1.0 3.0 43 43
+ 0.484 1 4 cbr 1000 ------- 2 1.0 3.0 48 48
- 0.484 1 4 cbr 1000 ------- 2 1.0 3.0 48 48
r 0.488706 5 3 cbr 1000 ------- 2 1.0 3.0 42 42
r 0.49 1 4 cbr 1000 ------- 2 1.0 3.0 47 47
+ 0.49 4 5 cbr 1000 ------- 2 1.0 3.0 47 47
- 0.49 4 5 cbr 1000 ------- 2 1.0 3.0 47 47
r 0.490706 4 5 cbr 1000 ------- 2 1.0 3.0 44 44
+ 0.490706 5 3 cbr 1000 ------- 2 1.0 3.0 44 44
- 0.490706 5 3 cbr 1000 ------- 2 1.0 3.0 44 44
+ 0.492 1 4 cbr 1000 ------- 2 1.0 3.0 49 49
- 0.492 1 4 cbr 1000 ------- 2 1.0 3.0 49 49
r 0.496706 5 3 cbr 1000 ------- 2 1.0 3.0 43 43
r 0.498 1 4 cbr 1000 ------- 2 1.0 3.0 48 48
+ 0.498 4 5 cbr 1000 ------- 2 1.0 3.0 48 48
- 0.498 4 5 cbr 1000 ------- 2 1.0 3.0 48 48
r 0.498706 4 5 cbr 1000 ------- 2 1.0 3.0 45 45
+ 0.498706 5 3 cbr 1000 ------- 2 1.0 3.0 45 45
- 0.498706 5 3 cbr 1000 ------- 2 1.0 3.0 45 45
+ 0.5 0 4 tcp 40 ------- 1 0.0 2.0 0 50
- 0.5 0 4 tcp 40 ------- 1 0.0 2.0 0 50
+ 0.5 1 4 cbr 1000 ------- 2 1.0 3.0 50 51
- 0.5 1 4 cbr 1000 ------- 2 1.0 3.0 50 51
r 0.504706 5 3 cbr 1000 ------- 2 1.0 3.0 44 44
r 0.506 1 4 cbr 1000 ------- 2 1.0 3.0 49 49
+ 0.506 4 5 cbr 1000 ------- 2 1.0 3.0 49 49
- 0.506 4 5 cbr 1000 ------- 2 1.0 3.0 49 49
r 0.506706 4 5 cbr 1000 ------- 2 1.0 3.0 46 46
+ 0.506706 5 3 cbr 1000 ------- 2 1.0 3.0 46 46
- 0.506706 5 3 cbr 1000 ------- 2 1.0 3.0 46 46
+ 0.508 1 4 cbr 1000 ------- 2 1.0 3.0 51 52
- 0.508 1 4 cbr 1000 ------- 2 1.0 3.0 51 52
r 0.51016 0 4 tcp 40 ------- 1 0.0 2.0 0 50
+ 0.51016 4 5 tcp 40 ------- 1 0.0 2.0 0 50
- 0.510706 4 5 tcp 40 ------- 1 0.0 2.0 0 50
r 0.512706 5 3 cbr 1000 ------- 2 1.0 3.0 45 45
r 0.514 1 4 cbr 1000 ------- 2 1.0 3.0 50 51
+ 0.514 4 5 cbr 1000 ------- 2 1.0 3.0 50 51
- 0.514 4 5 cbr 1000 ------- 2 1.0 3.0 50 51
r 0.514706 4 5 cbr 1000 ------- 2 1.0 3.0 47 47
+ 0.514706 5 3 cbr 1000 ------- 2 1.0 3.0 47 47
- 0.514706 5 3 cbr 1000 ------- 2 1.0 3.0 47 47
+ 0.516 1 4 cbr 1000 ------- 2 1.0 3.0 52 53
- 0.516 1 4 cbr 1000 ------- 2 1.0 3.0 52 53
r 0.520706 5 3 cbr 1000 ------- 2 1.0 3.0 46 46
r 0.522 1 4 cbr 1000 ------- 2 1.0 3.0 51 52
+ 0.522 4 5 cbr 1000 ------- 2 1.0 3.0 51 52
- 0.522 4 5 cbr 1000 ------- 2 1.0 3.0 51 52
r 0.522706 4 5 cbr 1000 ------- 2 1.0 3.0 48 48
+ 0.522706 5 3 cbr 1000 ------- 2 1.0 3.0 48 48
- 0.522706 5 3 cbr 1000 ------- 2 1.0 3.0 48 48
+ 0.524 1 4 cbr 1000 ------- 2 1.0 3.0 53 54
- 0.524 1 4 cbr 1000 ------- 2 1.0 3.0 53 54
r 0.528706 5 3 cbr 1000 ------- 2 1.0 3.0 47 47
r 0.53 1 4 cbr 1000 ------- 2 1.0 3.0 52 53
+ 0.53 4 5 cbr 1000 ------- 2 1.0 3.0 52 53
- 0.53 4 5 cbr 1000 ------- 2 1.0 3.0 52 53
r 0.530706 4 5 cbr 1000 ------- 2 1.0 3.0 49 49
+ 0.530706 5 3 cbr 1000 ------- 2 1.0 3.0 49 49
- 0.530706 5 3 cbr 1000 ------- 2 1.0 3.0 49 49
r 0.530894 4 5 tcp 40 ------- 1 0.0 2.0 0 50
+ 0.530894 5 2 tcp 40 ------- 1 0.0 2.0 0 50
- 0.530894 5 2 tcp 40 ------- 1 0.0 2.0 0 50
+ 0.532 1 4 cbr 1000 ------- 2 1.0 3.0 54 55
- 0.532 1 4 cbr 1000 ------- 2 1.0 3.0 54 55
r 0.536706 5 3 cbr 1000 ------- 2 1.0 3.0 48 48
r 0.538 1 4 cbr 1000 ------- 2 1.0 3.0 53 54
+ 0.538 4 5 cbr 1000 ------- 2 1.0 3.0 53 54
- 0.538 4 5 cbr 1000 ------- 2 1.0 3.0 53 54
r 0.538706 4 5 cbr 1000 ------- 2 1.0 3.0 50 51
+ 0.538706 5 3 cbr 1000 ------- 2 1.0 3.0 50 51
- 0.538706 5 3 cbr 1000 ------- 2 1.0 3.0 50 51
+ 0.54 1 4 cbr 1000 ------- 2 1.0 3.0 55 56
- 0.54 1 4 cbr 1000 ------- 2 1.0 3.0 55 56
r 0.541054 5 2 tcp 40 ------- 1 0.0 2.0 0 50
+ 0.541054 2 5 ack 40 ------- 1 2.0 0.0 0 57
- 0.541054 2 5 ack 40 ------- 1 2.0 0.0 0 57
r 0.544706 5 3 cbr 1000 ------- 2 1.0 3.0 49 49
r 0.546 1 4 cbr 1000 ------- 2 1.0 3.0 54 55
+ 0.546 4 5 cbr 1000 ------- 2 1.0 3.0 54 55
- 0.546 4 5 cbr 1000 ------- 2 1.0 3.0 54 55
r 0.546706 4 5 cbr 1000 ------- 2 1.0 3.0 51 52
+ 0.546706 5 3 cbr 1000 ------- 2 1.0 3.0 51 52
- 0.546706 5 3 cbr 1000 ------- 2 1.0 3.0 51 52
+ 0.548 1 4 cbr 1000 ------- 2 1.0 3.0 56 58
- 0.548 1 4 cbr 1000 ------- 2 1.0 3.0 56 58
r 0.551214 2 5 ack 40 ------- 1 2.0 0.0 0 57
+ 0.551214 5 4 ack 40 ------- 1 2.0 0.0 0 57
- 0.551214 5 4 ack 40 ------- 1 2.0 0.0 0 57
r 0.552706 5 3 cbr 1000 ------- 2 1.0 3.0 50 51
r 0.554 1 4 cbr 1000 ------- 2 1.0 3.0 55 56
+ 0.554 4 5 cbr 1000 ------- 2 1.0 3.0 55 56
- 0.554 4 5 cbr 1000 ------- 2 1.0 3.0 55 56
r 0.554706 4 5 cbr 1000 ------- 2 1.0 3.0 52 53
+ 0.554706 5 3 cbr 1000 ------- 2 1.0 3.0 52 53
- 0.554706 5 3 cbr 1000 ------- 2 1.0 3.0 52 53
+ 0.556 1 4 cbr 1000 ------- 2 1.0 3.0 57 59
- 0.556 1 4 cbr 1000 ------- 2 1.0 3.0 57 59
r 0.560706 5 3 cbr 1000 ------- 2 1.0 3.0 51 52
r 0.562 1 4 cbr 1000 ------- 2 1.0 3.0 56 58
+ 0.562 4 5 cbr 1000 ------- 2 1.0 3.0 56 58
- 0.562 4 5 cbr 1000 ------- 2 1.0 3.0 56 58
r 0.562706 4 5 cbr 1000 ------- 2 1.0 3.0 53 54
+ 0.562706 5 3 cbr 1000 ------- 2 1.0 3.0 53 54
- 0.562706 5 3 cbr 1000 ------- 2 1.0 3.0 53 54
+ 0.564 1 4 cbr 1000 ------- 2 1.0 3.0 58 60
- 0.564 1 4 cbr 1000 ------- 2 1.0 3.0 58 60
r 0.568706 5 3 cbr 1000 ------- 2 1.0 3.0 52 53
r 0.57 1 4 cbr 1000 ------- 2 1.0 3.0 57 59
+ 0.57 4 5 cbr 1000 ------- 2 1.0 3.0 57 59
- 0.57 4 5 cbr 1000 ------- 2 1.0 3.0 57 59
r 0.570706 4 5 cbr 1000 ------- 2 1.0 3.0 54 55
+ 0.570706 5 3 cbr 1000 ------- 2 1.0 3.0 54 55
- 0.570706 5 3 cbr 1000 ------- 2 1.0 3.0 54 55
r 0.571402 5 4 ack 40 ------- 1 2.0 0.0 0 57
+ 0.571402 4 0 ack 40 ------- 1 2.0 0.0 0 57
- 0.571402 4 0 ack 40 ------- 1 2.0 0.0 0 57
+ 0.572 1 4 cbr 1000 ------- 2 1.0 3.0 59 61
- 0.572 1 4 cbr 1000 ------- 2 1.0 3.0 59 61
r 0.576706 5 3 cbr 1000 ------- 2 1.0 3.0 53 54
r 0.578 1 4 cbr 1000 ------- 2 1.0 3.0 58 60
+ 0.578 4 5 cbr 1000 ------- 2 1.0 3.0 58 60
- 0.578 4 5 cbr 1000 ------- 2 1.0 3.0 58 60
r 0.578706 4 5 cbr 1000 ------- 2 1.0 3.0 55 56
+ 0.578706 5 3 cbr 1000 ------- 2 1.0 3.0 55 56
- 0.578706 5 3 cbr 1000 ------- 2 1.0 3.0 55 56
+ 0.58 1 4 cbr 1000 ------- 2 1.0 3.0 60 62
- 0.58 1 4 cbr 1000 ------- 2 1.0 3.0 60 62
r 0.581562 4 0 ack 40 ------- 1 2.0 0.0 0 57
+ 0.581562 0 4 tcp 1040 ------- 1 0.0 2.0 1 63
- 0.581562 0 4 tcp 1040 ------- 1 0.0 2.0 1 63
+ 0.581562 0 4 tcp 1040 ------- 1 0.0 2.0 2 64
r 0.584706 5 3 cbr 1000 ------- 2 1.0 3.0 54 55
- 0.585722 0 4 tcp 1040 ------- 1 0.0 2.0 2 64
r 0.586 1 4 cbr 1000 ------- 2 1.0 3.0 59 61
+ 0.586 4 5 cbr 1000 ------- 2 1.0 3.0 59 61
- 0.586 4 5 cbr 1000 ------- 2 1.0 3.0 59 61
r 0.586706 4 5 cbr 1000 ------- 2 1.0 3.0 56 58
+ 0.586706 5 3 cbr 1000 ------- 2 1.0 3.0 56 58
- 0.586706 5 3 cbr 1000 ------- 2 1.0 3.0 56 58
+ 0.588 1 4 cbr 1000 ------- 2 1.0 3.0 61 65
- 0.588 1 4 cbr 1000 ------- 2 1.0 3.0 61 65
r 0.592706 5 3 cbr 1000 ------- 2 1.0 3.0 55 56
r 0.594 1 4 cbr 1000 ------- 2 1.0 3.0 60 62
+ 0.594 4 5 cbr 1000 ------- 2 1.0 3.0 60 62
- 0.594 4 5 cbr 1000 ------- 2 1.0 3.0 60 62
r 0.594706 4 5 cbr 1000 ------- 2 1.0 3.0 57 59
+ 0.594706 5 3 cbr 1000 ------- 2 1.0 3.0 57 59
- 0.594706 5 3 cbr 1000 ------- 2 1.0 3.0 57 59
r 0.595722 0 4 tcp 1040 ------- 1 0.0 2.0 1 63
+ 0.595722 4 5 tcp 1040 ------- 1 0.0 2.0 1 63
+ 0.596 1 4 cbr 1000 ------- 2 1.0 3.0 62 66
- 0.596 1 4 cbr 1000 ------- 2 1.0 3.0 62 66
- 0.598706 4 5 tcp 1040 ------- 1 0.0 2.0 1 63
r 0.599882 0 4 tcp 1040 ------- 1 0.0 2.0 2 64
+ 0.599882 4 5 tcp 1040 ------- 1 0.0 2.0 2 64
r 0.600706 5 3 cbr 1000 ------- 2 1.0 3.0 56 58
r 0.602 1 4 cbr 1000 ------- 2 1.0 3.0 61 65
+ 0.602 4 5 cbr 1000 ------- 2 1.0 3.0 61 65
r 0.602706 4 5 cbr 1000 ------- 2 1.0 3.0 58 60
+ 0.602706 5 3 cbr 1000 ------- 2 1.0 3.0 58 60
- 0.602706 5 3 cbr 1000 ------- 2 1.0 3.0 58 60
- 0.6036 4 5 tcp 1040 ------- 1 0.0 2.0 2 64
+ 0.604 1 4 cbr 1000 ------- 2 1.0 3.0 63 67
- 0.604 1 4 cbr 1000 ------- 2 1.0 3.0 63 67
- 0.608494 4 5 cbr 1000 ------- 2 1.0 3.0 61 65
r 0.608706 5 3 cbr 1000 ------- 2 1.0 3.0 57 59
r 0.61 1 4 cbr 1000 ------- 2 1.0 3.0 62 66
+ 0.61 4 5 cbr 1000 ------- 2 1.0 3.0 62 66
r 0.610706 4 5 cbr 1000 ------- 2 1.0 3.0 59 61
+ 0.610706 5 3 cbr 1000 ------- 2 1.0 3.0 59 61
- 0.610706 5 3 cbr 1000 ------- 2 1.0 3.0 59 61
+ 0.612 1 4 cbr 1000 ------- 2 1.0 3.0 64 68
- 0.612 1 4 cbr 1000 ------- 2 1.0 3.0 64 68
- 0.6132 4 5 cbr 1000 ------- 2 1.0 3.0 62 66
r 0.616706 5 3 cbr 1000 ------- 2 1.0 3.0 58 60
r 0.618 1 4 cbr 1000 ------- 2 1.0 3.0 63 67
+ 0.618 4 5 cbr 1000 ------- 2 1.0 3.0 63 67
- 0.618 4 5 cbr 1000 ------- 2 1.0 3.0 63 67
r 0.618706 4 5 cbr 1000 ------- 2 1.0 3.0 60 62
+ 0.618706 5 3 cbr 1000 ------- 2 1.0 3.0 60 62
- 0.618706 5 3 cbr 1000 ------- 2 1.0 3.0 60 62
+ 0.62 1 4 cbr 1000 ------- 2 1.0 3.0 65 69
- 0.62 1 4 cbr 1000 ------- 2 1.0 3.0 65 69
r 0.6236 4 5 tcp 1040 ------- 1 0.0 2.0 1 63
+ 0.6236 5 2 tcp 1040 ------- 1 0.0 2.0 1 63
- 0.6236 5 2 tcp 1040 ------- 1 0.0 2.0 1 63
r 0.624706 5 3 cbr 1000 ------- 2 1.0 3.0 59 61
r 0.626 1 4 cbr 1000 ------- 2 1.0 3.0 64 68
+ 0.626 4 5 cbr 1000 ------- 2 1.0 3.0 64 68
- 0.626 4 5 cbr 1000 ------- 2 1.0 3.0 64 68
+ 0.628 1 4 cbr 1000 ------- 2 1.0 3.0 66 70
- 0.628 1 4 cbr 1000 ------- 2 1.0 3.0 66 70
r 0.628494 4 5 tcp 1040 ------- 1 0.0 2.0 2 64
+ 0.628494 5 2 tcp 1040 ------- 1 0.0 2.0 2 64
- 0.628494 5 2 tcp 1040 ------- 1 0.0 2.0 2 64
r 0.632706 5 3 cbr 1000 ------- 2 1.0 3.0 60 62
r 0.6332 4 5 cbr 1000 ------- 2 1.0 3.0 61 65
+ 0.6332 5 3 cbr 1000 ------- 2 1.0 3.0 61 65
- 0.6332 5 3 cbr 1000 ------- 2 1.0 3.0 61 65
r 0.634 1 4 cbr 1000 ------- 2 1.0 3.0 65 69
+ 0.634 4 5 cbr 1000 ------- 2 1.0 3.0 65 69
- 0.634 4 5 cbr 1000 ------- 2 1.0 3.0 65 69
+ 0.636 1 4 cbr 1000 ------- 2 1.0 3.0 67 71
- 0.636 1 4 cbr 1000 ------- 2 1.0 3.0 67 71
r 0.63776 5 2 tcp 1040 ------- 1 0.0 2.0 1 63
+ 0.63776 2 5 ack 40 ------- 1 2.0 0.0 1 72
- 0.63776 2 5 ack 40 ------- 1 2.0 0.0 1 72
r 0.637906 4 5 cbr 1000 ------- 2 1.0 3.0 62 66
+ 0.637906 5 3 cbr 1000 ------- 2 1.0 3.0 62 66
- 0.637906 5 3 cbr 1000 ------- 2 1.0 3.0 62 66
r 0.642 1 4 cbr 1000 ------- 2 1.0 3.0 66 70
+ 0.642 4 5 cbr 1000 ------- 2 1.0 3.0 66 70
- 0.642 4 5 cbr 1000 ------- 2 1.0 3.0 66 70
r 0.642654 5 2 tcp 1040 ------- 1 0.0 2.0 2 64
+ 0.642654 2 5 ack 40 ------- 1 2.0 0.0 2 73
- 0.642654 2 5 ack 40 ------- 1 2.0 0.0 2 73
r 0.642706 4 5 cbr 1000 ------- 2 1.0 3.0 63 67
+ 0.642706 5 3 cbr 1000 ------- 2 1.0 3.0 63 67
- 0.642706 5 3 cbr 1000 ------- 2 1.0 3.0 63 67
+ 0.644 1 4 cbr 1000 ------- 2 1.0 3.0 68 74
- 0.644 1 4 cbr 1000 ------- 2 1.0 3.0 68 74
r 0.6472 5 3 cbr 1000 ------- 2 1.0 3.0 61 65
r 0.64792 2 5 ack 40 ------- 1 2.0 0.0 1 72
+ 0.64792 5 4 ack 40 ------- 1 2.0 0.0 1 72
- 0.64792 5 4 ack 40 ------- 1 2.0 0.0 1 72
r 0.65 1 4 cbr 1000 ------- 2 1.0 3.0 67 71
+ 0.65 4 5 cbr 1000 ------- 2 1.0 3.0 67 71
- 0.65 4 5 cbr 1000 ------- 2 1.0 3.0 67 71
r 0.650706 4 5 cbr 1000 ------- 2 1.0 3.0 64 68
+ 0.650706 5 3 cbr 1000 ------- 2 1.0 3.0 64 68
- 0.650706 5 3 cbr 1000 ------- 2 1.0 3.0 64 68
r 0.651906 5 3 cbr 1000 ------- 2 1.0 3.0 62 66
+ 0.652 1 4 cbr 1000 ------- 2 1.0 3.0 69 75
- 0.652 1 4 cbr 1000 ------- 2 1.0 3.0 69 75
r 0.652814 2 5 ack 40 ------- 1 2.0 0.0 2 73
+ 0.652814 5 4 ack 40 ------- 1 2.0 0.0 2 73
- 0.652814 5 4 ack 40 ------- 1 2.0 0.0 2 73
r 0.656706 5 3 cbr 1000 ------- 2 1.0 3.0 63 67
r 0.658 1 4 cbr 1000 ------- 2 1.0 3.0 68 74
+ 0.658 4 5 cbr 1000 ------- 2 1.0 3.0 68 74
- 0.658 4 5 cbr 1000 ------- 2 1.0 3.0 68 74
r 0.658706 4 5 cbr 1000 ------- 2 1.0 3.0 65 69
+ 0.658706 5 3 cbr 1000 ------- 2 1.0 3.0 65 69