l -t 0 -s 4 -d 5 -S DLABEL -l "Bottleneck-Link" -L ""
l -t 0 -s 5 -d 4 -S DLABEL -l "Bottleneck-Link" -L ""
V -t * -v 1.0a5 -a 0
A -t * -n 1 -p 0 -o 0x7fffffff -c 30 -a 1
A -t * -h 1 -m 1073741823 -s 0
c -t * -i 1 -n Blue
c -t * -i 2 -n Red
n -t * -a 4 -s 4 -S UP -v circle -c black -i black
n -t * -a 0 -s 0 -S UP -v circle -c black -i black
n -t * -a 5 -s 5 -S UP -v circle -c black -i black
n -t * -a 1 -s 1 -S UP -v circle -c black -i black
n -t * -a 2 -s 2 -S UP -v circle -c black -i black
n -t * -a 3 -s 3 -S UP -v circle -c black -i black
l -t * -s 0 -d 4 -S UP -r 10000000 -D 0.01 -c black -o right-down
l -t * -s 1 -d 4 -S UP -r 10000000 -D 0.01 -c black -o right-up
l -t * -s 4 -d 5 -S UP -r 5000000 -D 0.02 -c black -o right
l -t * -s 5 -d 2 -S UP -r 10000000 -D 0.01 -c black -o right-up
l -t * -s 5 -d 3 -S UP -r 10000000 -D 0.01 -c black -o right-down
q -t * -s 5 -d 4 -a 0.5
q -t * -s 4 -d 5 -a 0.5
+ -t 0.1 -s 0 -d 4 -p tcp -e 40 -c 1 -i 0 -a 1 -x {0.0 2.0 0 ------- null}
- -t 0.1 -s 0 -d 4 -p tcp -e 40 -c 1 -i 0 -a 1 -x {0.0 2.0 0 ------- null}
h -t 0.1 -s 0 -d 4 -p tcp -e 40 -c 1 -i 0 -a 1 -x {0.0 2.0 -1 ------- null}
r -t 0.110032 -s 0 -d 4 -p tcp -e 40 -c 1 -i 0 -a 1 -x {0.0 2.0 0 ------- null}
+ -t 0.110032 -s 4 -d 5 -p tcp -e 40 -c 1 -i 0 -a 1 -x {0.0 2.0 0 ------- null}
- -t 0.110032 -s 4 -d 5 -p tcp -e 40 -c 1 -i 0 -a 1 -x {0.0 2.0 0 ------- null}
h -t 0.110032 -s 4 -d 5 -p tcp -e 40 -c 1 -i 0 -a 1 -x {0.0 2.0 -1 ------- null}
r -t 0.130096 -s 4 -d 5 -p tcp -e 40 -c 1 -i 0 -a 1 -x {0.0 2.0 0 ------- null}
+ -t 0.130096 -s 5 -d 2 -p tcp -e 40 -c 1 -i 0 -a 1 -x {0.0 2.0 0 ------- null}
- -t 0.130096 -s 5 -d 2 -p tcp -e 40 -c 1 -i 0 -a 1 -x {0.0 2.0 0 ------- null}
h -t 0.130096 -s 5 -d 2 -p tcp -e 40 -c 1 -i 0 -a 1 -x {0.0 2.0 -1 ------- null}
r -t 0.140128 -s 5 -d 2 -p tcp -e 40 -c 1 -i 0 -a 1 -x {0.0 2.0 0 ------- null}
+ -t 0.140128 -s 2 -d 5 -p ack -e 40 -c 1 -i 1 -a 1 -x {2.0 0.0 0 ------- null}
- -t 0.140128 -s 2 -d 5 -p ack -e 40 -c 1 -i 1 -a 1 -x {2.0 0.0 0 ------- null}
h -t 0.140128 -s 2 -d 5 -p ack -e 40 -c 1 -i 1 -a 1 -x {2.0 0.0 -1 ------- null}
r -t 0.15016 -s 2 -d 5 -p ack -e 40 -c 1 -i 1 -a 1 -x {2.0 0.0 0 ------- null}
+ -t 0.15016 -s 5 -d 4 -p ack -e 40 -c 1 -i 1 -a 1 -x {2.0 0.0 0 ------- null}
- -t 0.15016 -s 5 -d 4 -p ack -e 40 -c 1 -i 1 -a 1 -x {2.0 0.0 0 ------- null}
h -t 0.15016 -s 5 -d 4 -p ack -e 40 -c 1 -i 1 -a 1 -x {2.0 0.0 -1 ------- null}
r -t 0.170224 -s 5 -d 4 -p ack -e 40 -c 1 -i 1 -a 1 -x {2.0 0.0 0 ------- null}
+ -t 0.170224 -s 4 -d 0 -p ack -e 40 -c 1 -i 1 -a 1 -x {2.0 0.0 0 ------- null}
- -t 0.170224 -s 4 -d 0 -p ack -e 40 -c 1 -i 1 -a 1 -x {2.0 0.0 0 ------- null}
h -t 0.170224 -s 4 -d 0 -p ack -e 40 -c 1 -i 1 -a 1 -x {2.0 0.0 -1 ------- null}
r -t 0.180256 -s 4 -d 0 -p ack -e 40 -c 1 -i 1 -a 1 -x {2.0 0.0 0 ------- null}
+ -t 0.180256 -s 0 -d 4 -p tcp -e 1040 -c 1 -i 2 -a 1 -x {0.0 2.0 1 ------- null}
- -t 0.180256 -s 0 -d 4 -p tcp -e 1040 -c 1 -i 2 -a 1 -x {0.0 2.0 1 ------- null}
h -t 0.180256 -s 0 -d 4 -p tcp -e 1040 -c 1 -i 2 -a 1 -x {0.0 2.0 -1 ------- null}
+ -t 0.180256 -s 0 -d 4 -p tcp -e 1040 -c 1 -i 3 -a 1 -x {0.0 2.0 2 ------- null}
- -t 0.181088 -s 0 -d 4 -p tcp -e 1040 -c 1 -i 3 -a 1 -x {0.0 2.0 2 ------- null}
h -t 0.181088 -s 0 -d 4 -p tcp -e 1040 -c 1 -i 3 -a 1 -x {0.0 2.0 -1 ------- null}
r -t 0.191088 -s 0 -d 4 -p tcp -e 1040 -c 1 -i 2 -a 1 -x {0.0 2.0 1 ------- null}
+ -t 0.191088 -s 4 -d 5 -p tcp -e 1040 -c 1 -i 2 -a 1 -x {0.0 2.0 1 ------- null}
- -t 0.191088 -s 4 -d 5 -p tcp -e 1040 -c 1 -i 2 -a 1 -x {0.0 2.0 1 ------- null}
h -t 0.191088 -s 4 -d 5 -p tcp -e 1040 -c 1 -i 2 -a 1 -x {0.0 2.0 -1 ------- null}
r -t 0.19192 -s 0 -d 4 -p tcp -e 1040 -c 1 -i 3 -a 1 -x {0.0 2.0 2 ------- null}
+ -t 0.19192 -s 4 -d 5 -p tcp -e 1040 -c 1 -i 3 -a 1 -x {0.0 2.0 2 ------- null}
- -t 0.192752 -s 4 -d 5 -p tcp -e 1040 -c 1 -i 3 -a 1 -x {0.0 2.0 2 ------- null}
h -t 0.192752 -s 4 -d 5 -p tcp -e 1040 -c 1 -i 3 -a 1 -x {0.0 2.0 -1 ------- null}
r -t 0.212752 -s 4 -d 5 -p tcp -e 1040 -c 1 -i 2 -a 1 -x {0.0 2.0 1 ------- null}
+ -t 0.212752 -s 5 -d 2 -p tcp -e 1040 -c 1 -i 2 -a 1 -x {0.0 2.0 1 ------- null}
- -t 0.212752 -s 5 -d 2 -p tcp -e 1040 -c 1 -i 2 -a 1 -x {0.0 2.0 1 ------- null}
h -t 0.212752 -s 5 -d 2 -p tcp -e 1040 -c 1 -i 2 -a 1 -x {0.0 2.0 -1 ------- null}
r -t 0.214416 -s 4 -d 5 -p tcp -e 1040 -c 1 -i 3 -a 1 -x {0.0 2.0 2 ------- null}
+ -t 0.214416 -s 5 -d 2 -p tcp -e 1040 -c 1 -i 3 -a 1 -x {0.0 2.0 2 ------- null}
- -t 0.214416 -s 5 -d 2 -p tcp -e 1040 -c 1 -i 3 -a 1 -x {0.0 2.0 2 ------- null}
h -t 0.214416 -s 5 -d 2 -p tcp -e 1040 -c 1 -i 3 -a 1 -x {0.0 2.0 -1 ------- null}
r -t 0.223584 -s 5 -d 2 -p tcp -e 1040 -c 1 -i 2 -a 1 -x {0.0 2.0 1 ------- null}
+ -t 0.223584 -s 2 -d 5 -p ack -e 40 -c 1 -i 4 -a 1 -x {2.0 0.0 1 ------- null}
- -t 0.223584 -s 2 -d 5 -p ack -e 40 -c 1 -i 4 -a 1 -x {2.0 0.0 1 ------- null}
h -t 0.223584 -s 2 -d 5 -p ack -e 40 -c 1 -i 4 -a 1 -x {2.0 0.0 -1 ------- null}
r -t 0.225248 -s 5 -d 2 -p tcp -e 1040 -c 1 -i 3 -a 1 -x {0.0 2.0 2 ------- null}
+ -t 0.225248 -s 2 -d 5 -p ack -e 40 -c 1 -i 5 -a 1 -x {2.0 0.0 2 ------- null}
- -t 0.225248 -s 2 -d 5 -p ack -e 40 -c 1 -i 5 -a 1 -x {2.0 0.0 2 ------- null}
h -t 0.225248 -s 2 -d 5 -p ack -e 40 -c 1 -i 5 -a 1 -x {2.0 0.0 -1 ------- null}
r -t 0.233616 -s 2 -d 5 -p ack -e 40 -c 1 -i 4 -a 1 -x {2.0 0.0 1 ------- null}
+ -t 0.233616 -s 5 -d 4 -p ack -e 40 -c 1 -i 4 -a 1 -x {2.0 0.0 1 ------- null}
- -t 0.233616 -s 5 -d 4 -p ack -e 40 -c 1 -i 4 -a 1 -x {2.0 0.0 1 ------- null}
h -t 0.233616 -s 5 -d 4 -p ack -e 40 -c 1 -i 4 -a 1 -x {2.0 0.0 -1 ------- null}
r -t 0.23528 -s 2 -d 5 -p ack -e 40 -c 1 -i 5 -a 1 -x {2.0 0.0 2 ------- null}
+ -t 0.23528 -s 5 -d 4 -p ack -e 40 -c 1 -i 5 -a 1 -x {2.0 0.0 2 ------- null}
- -t 0.23528 -s 5 -d 4 -p ack -e 40 -c 1 -i 5 -a 1 -x {2.0 0.0 2 ------- null}
h -t 0.23528 -s 5 -d 4 -p ack -e 40 -c 1 -i 5 -a 1 -x {2.0 0.0 -1 ------- null}
r -t 0.25368 -s 5 -d 4 -p ack -e 40 -c 1 -i 4 -a 1 -x {2.0 0.0 1 ------- null}
+ -t 0.25368 -s 4 -d 0 -p ack -e 40 -c 1 -i 4 -a 1 -x {2.0 0.0 1 ------- null}
- -t 0.25368 -s 4 -d 0 -p ack -e 40 -c 1 -i 4 -a 1 -x {2.0 0.0 1 ------- null}
h -t 0.25368 -s 4 -d 0 -p ack -e 40 -c 1 -i 4 -a 1 -x {2.0 0.0 -1 ------- null}
r -t 0.255344 -s 5 -d 4 -p ack -e 40 -c 1 -i 5 -a 1 -x {2.0 0.0 2 ------- null}
+ -t 0.255344 -s 4 -d 0 -p ack -e 40 -c 1 -i 5 -a 1 -x {2.0 0.0 2 ------- null}
- -t 0.255344 -s 4 -d 0 -p ack -e 40 -c 1 -i 5 -a 1 -x {2.0 0.0 2 ------- null}
h -t 0.255344 -s 4 -d 0 -p ack -e 40 -c 1 -i 5 -a 1 -x {2.0 0.0 -1 ------- null}
r -t 0.263712 -s 4 -d 0 -p ack -e 40 -c 1 -i 4 -a 1 -x {2.0 0.0 1 ------- null}
+ -t 0.263712 -s 0 -d 4 -p tcp -e 1040 -c 1 -i 6 -a 1 -x {0.0 2.0 3 ------- null}
- -t 0.263712 -s 0 -d 4 -p tcp -e 1040 -c 1 -i 6 -a 1 -x {0.0 2.0 3 ------- null}
h -t 0.263712 -s 0 -d 4 -p tcp -e 1040 -c 1 -i 6 -a 1 -x {0.0 2.0 -1 ------- null}
+ -t 0.263712 -s 0 -d 4 -p tcp -e 1040 -c 1 -i 7 -a 1 -x {0.0 2.0 4 ------- null}
- -t 0.264544 -s 0 -d 4 -p tcp -e 1040 -c 1 -i 7 -a 1 -x {0.0 2.0 4 ------- null}
h -t 0.264544 -s 0 -d 4 -p tcp -e 1040 -c 1 -i 7 -a 1 -x {0.0 2.0 -1 ------- null}
r -t 0.265376 -s 4 -d 0 -p ack -e 40 -c 1 -i 5 -a 1 -x {2.0 0.0 2 ------- null}
+ -t 0.265376 -s 0 -d 4 -p tcp -e 1040 -c 1 -i 8 -a 1 -x {0.0 2.0 5 ------- null}
+ -t 0.265376 -s 0 -d 4 -p tcp -e 1040 -c 1 -i 9 -a 1 -x {0.0 2.0 6 ------- null}
- -t 0.265376 -s 0 -d 4 -p tcp -e 1040 -c 1 -i 8 -a 1 -x {0.0 2.0 5 ------- null}
h -t 0.265376 -s 0 -d 4 -p tcp -e 1040 -c 1 -i 8 -a 1 -x {0.0 2.0 -1 ------- null}
- -t 0.266208 -s 0 -d 4 -p tcp -e 1040 -c 1 -i 9 -a 1 -x {0.0 2.0 6 ------- null}
h -t 0.266208 -s 0 -d 4 -p tcp -e 1040 -c 1 -i 9 -a 1 -x {0.0 2.0 -1 ------- null}
r -t 0.274544 -s 0 -d 4 -p tcp -e 1040 -c 1 -i 6 -a 1 -x {0.0 2.0 3 ------- null}
+ -t 0.274544 -s 4 -d 5 -p tcp -e 1040 -c 1 -i 6 -a 1 -x {0.0 2.0 3 ------- null}
- -t 0.274544 -s 4 -d 5 -p tcp -e 1040 -c 1 -i 6 -a 1 -x {0.0 2.0 3 ------- null}
h -t 0.274544 -s 4 -d 5 -p tcp -e 1040 -c 1 -i 6 -a 1 -x {0.0 2.0 -1 ------- null}
r -t 0.275376 -s 0 -d 4 -p tcp -e 1040 -c 1 -i 7 -a 1 -x {0.0 2.0 4 ------- null}
+ -t 0.275376 -s 4 -d 5 -p tcp -e 1040 -c 1 -i 7 -a 1 -x {0.0 2.0 4 ------- null}
r -t 0.276208 -s 0 -d 4 -p tcp -e 1040 -c 1 -i 8 -a 1 -x {0.0 2.0 5 ------- null}
+ -t 0.276208 -s 4 -d 5 -p tcp -e 1040 -c 1 -i 8 -a 1 -x {0.0 2.0 5 ------- null}
- -t 0.276208 -s 4 -d 5 -p tcp -e 1040 -c 1 -i 7 -a 1 -x {0.0 2.0 4 ------- null}
h -t 0.276208 -s 4 -d 5 -p tcp -e 1040 -c 1 -i 7 -a 1 -x {0.0 2.0 -1 ------- null}
r -t 0.27704 -s 0 -d 4 -p tcp -e 1040 -c 1 -i 9 -a 1 -x {0.0 2.0 6 ------- null}
+ -t 0.27704 -s 4 -d 5 -p tcp -e 1040 -c 1 -i 9 -a 1 -x {0.0 2.0 6 ------- null}
- -t 0.277872 -s 4 -d 5 -p tcp -e 1040 -c 1 -i 8 -a 1 -x {0.0 2.0 5 ------- null}
h -t 0.277872 -s 4 -d 5 -p tcp -e 1040 -c 1 -i 8 -a 1 -x {0.0 2.0 -1 ------- null}
- -t 0.279536 -s 4 -d 5 -p tcp -e 1040 -c 1 -i 9 -a 1 -x {0.0 2.0 6 ------- null}
h -t 0.279536 -s 4 -d 5 -p tcp -e 1040 -c 1 -i 9 -a 1 -x {0.0 2.0 -1 ------- null}
r -t 0.296208 -s 4 -d 5 -p tcp -e 1040 -c 1 -i 6 -a 1 -x {0.0 2.0 3 ------- null}
+ -t 0.296208 -s 5 -d 2 -p tcp -e 1040 -c 1 -i 6 -a 1 -x {0.0 2.0 3 ------- null}
- -t 0.296208 -s 5 -d 2 -p tcp -e 1040 -c 1 -i 6 -a 1 -x {0.0 2.0 3 ------- null}
h -t 0.296208 -s 5 -d 2 -p tcp -e 1040 -c 1 -i 6 -a 1 -x {0.0 2.0 -1 ------- null}
r -t 0.297872 -s 4 -d 5 -p tcp -e 1040 -c 1 -i 7 -a 1 -x {0.0 2.0 4 ------- null}
+ -t 0.297872 -s 5 -d 2 -p tcp -e 1040 -c 1 -i 7 -a 1 -x {0.0 2.0 4 ------- null}
- -t 0.297872 -s 5 -d 2 -p tcp -e 1040 -c 1 -i 7 -a 1 -x {0.0 2.0 4 ------- null}
h -t 0.297872 -s 5 -d 2 -p tcp -e 1040 -c 1 -i 7 -a 1 -x {0.0 2.0 -1 ------- null}
r -t 0.299536 -s 4 -d 5 -p tcp -e 1040 -c 1 -i 8 -a 1 -x {0.0 2.0 5 ------- null}
+ -t 0.299536 -s 5 -d 2 -p tcp -e 1040 -c 1 -i 8 -a 1 -x {0.0 2.0 5 ------- null}
- -t 0.299536 -s 5 -d 2 -p tcp -e 1040 -c 1 -i 8 -a 1 -x {0.0 2.0 5 ------- null}
h -t 0.299536 -s 5 -d 2 -p tcp -e 1040 -c 1 -i 8 -a 1 -x {0.0 2.0 -1 ------- null}
r -t 0.3012 -s 4 -d 5 -p tcp -e 1040 -c 1 -i 9 -a 1 -x {0.0 2.0 6 ------- null}
+ -t 0.3012 -s 5 -d 2 -p tcp -e 1040 -c 1 -i 9 -a 1 -x {0.0 2.0 6 ------- null}
- -t 0.3012 -s 5 -d 2 -p tcp -e 1040 -c 1 -i 9 -a 1 -x {0.0 2.0 6 ------- null}
h -t 0.3012 -s 5 -d 2 -p tcp -e 1040 -c 1 -i 9 -a 1 -x {0.0 2.0 -1 ------- null}
r -t 0.30704 -s 5 -d 2 -p tcp -e 1040 -c 1 -i 6 -a 1 -x {0.0 2.0 3 ------- null}
+ -t 0.30704 -s 2 -d 5 -p ack -e 40 -c 1 -i 10 -a 1 -x {2.0 0.0 3 ------- null}
- -t 0.30704 -s 2 -d 5 -p ack -e 40 -c 1 -i 10 -a 1 -x {2.0 0.0 3 ------- null}
h -t 0.30704 -s 2 -d 5 -p ack -e 40 -c 1 -i 10 -a 1 -x {2.0 0.0 -1 ------- null}
r -t 0.308704 -s 5 -d 2 -p tcp -e 1040 -c 1 -i 7 -a 1 -x {0.0 2.0 4 ------- null}
+ -t 0.308704 -s 2 -d 5 -p ack -e 40 -c 1 -i 11 -a 1 -x {2.0 0.0 4 ------- null}
- -t 0.308704 -s 2 -d 5 -p ack -e 40 -c 1 -i 11 -a 1 -x {2.0 0.0 4 ------- null}
h -t 0.308704 -s 2 -d 5 -p ack -e 40 -c 1 -i 11 -a 1 -x {2.0 0.0 -1 ------- null}
r -t 0.310368 -s 5 -d 2 -p tcp -e 1040 -c 1 -i 8 -a 1 -x {0.0 2.0 5 ------- null}
+ -t 0.310368 -s 2 -d 5 -p ack -e 40 -c 1 -i 12 -a 1 -x {2.0 0.0 5 ------- null}
- -t 0.310368 -s 2 -d 5 -p ack -e 40 -c 1 -i 12 -a 1 -x {2.0 0.0 5 ------- null}
h -t 0.310368 -s 2 -d 5 -p ack -e 40 -c 1 -i 12 -a 1 -x {2.0 0.0 -1 ------- null}
r -t 0.312032 -s 5 -d 2 -p tcp -e 1040 -c 1 -i 9 -a 1 -x {0.0 2.0 6 ------- null}
+ -t 0.312032 -s 2 -d 5 -p ack -e 40 -c 1 -i 13 -a 1 -x {2.0 0.0 6 ------- null}
- -t 0.312032 -s 2 -d 5 -p ack -e 40 -c 1 -i 13 -a 1 -x {2.0 0.0 6 ------- null}
h -t 0.312032 -s 2 -d 5 -p ack -e 40 -c 1 -i 13 -a 1 -x {2.0 0.0 -1 ------- null}
r -t 0.317072 -s 2 -d 5 -p ack -e 40 -c 1 -i 10 -a 1 -x {2.0 0.0 3 ------- null}
+ -t 0.317072 -s 5 -d 4 -p ack -e 40 -c 1 -i 10 -a 1 -x {2.0 0.0 3 ------- null}
- -t 0.317072 -s 5 -d 4 -p ack -e 40 -c 1 -i 10 -a 1 -x {2.0 0.0 3 ------- null}
h -t 0.317072 -s 5 -d 4 -p ack -e 40 -c 1 -i 10 -a 1 -x {2.0 0.0 -1 ------- null}
r -t 0.318736 -s 2 -d 5 -p ack -e 40 -c 1 -i 11 -a 1 -x {2.0 0.0 4 ------- null}
+ -t 0.318736 -s 5 -d 4 -p ack -e 40 -c 1 -i 11 -a 1 -x {2.0 0.0 4 ------- null}
- -t 0.318736 -s 5 -d 4 -p ack -e 40 -c 1 -i 11 -a 1 -x {2.0 0.0 4 ------- null}
h -t 0.318736 -s 5 -d 4 -p ack -e 40 -c 1 -i 11 -a 1 -x {2.0 0.0 -1 ------- null}
r -t 0.3204 -s 2 -d 5 -p ack -e 40 -c 1 -i 12 -a 1 -x {2.0 0.0 5 ------- null}
+ -t 0.3204 -s 5 -d 4 -p ack -e 40 -c 1 -i 12 -a 1 -x {2.0 0.0 5 ------- null}
- -t 0.3204 -s 5 -d 4 -p ack -e 40 -c 1 -i 12 -a 1 -x {2.0 0.0 5 ------- null}
h -t 0.3204 -s 5 -d 4 -p ack -e 40 -c 1 -i 12 -a 1 -x {2.0 0.0 -1 ------- null}
r -t 0.322064 -s 2 -d 5 -p ack -e 40 -c 1 -i 13 -a 1 -x {2.0 0.0 6 ------- null}
+ -t 0.322064 -s 5 -d 4 -p ack -e 40 -c 1 -i 13 -a 1 -x {2.0 0.0 6 ------- null}
- -t 0.322064 -s 5 -d 4 -p ack -e 40 -c 1 -i 13 -a 1 -x {2.0 0.0 6 ------- null}
h -t 0.322064 -s 5 -d 4 -p ack -e 40 -c 1 -i 13 -a 1 -x {2.0 0.0 -1 ------- null}
r -t 0.337136 -s 5 -d 4 -p ack -e 40 -c 1 -i 10 -a 1 -x {2.0 0.0 3 ------- null}
+ -t 0.337136 -s 4 -d 0 -p ack -e 40 -c 1 -i 10 -a 1 -x {2.0 0.0 3 ------- null}
- -t 0.337136 -s 4 -d 0 -p ack -e 40 -c 1 -i 10 -a 1 -x {2.0 0.0 3 ------- null}
h -t 0.337136 -s 4 -d 0 -p ack -e 40 -c 1 -i 10 -a 1 -x {2.0 0.0 -1 ------- null}
r -t 0.3388 -s 5 -d 4 -p ack -e 40 -c 1 -i 11 -a 1 -x {2.0 0.0 4 ------- null}
+ -t 0.3388 -s 4 -d 0 -p ack -e 40 -c 1 -i 11 -a 1 -x {2.0 0.0 4 ------- null}
- -t 0.3388 -s 4 -d 0 -p ack -e 40 -c 1 -i 11 -a 1 -x {2.0 0.0 4 ------- null}
h -t 0.3388 -s 4 -d 0 -p ack -e 40 -c 1 -i 11 -a 1 -x {2.0 0.0 -1 ------- null}
r -t 0.340464 -s 5 -d 4 -p ack -e 40 -c 1 -i 12 -a 1 -x {2.0 0.0 5 ------- null}
+ -t 0.340464 -s 4 -d 0 -p ack -e 40 -c 1 -i 12 -a 1 -x {2.0 0.0 5 ------- null}
- -t 0.340464 -s 4 -d 0 -p ack -e 40 -c 1 -i 12 -a 1 -x {2.0 0.0 5 ------- null}
h -t 0.340464 -s 4 -d 0 -p ack -e 40 -c 1 -i 12 -a 1 -x {2.0 0.0 -1 ------- null}
r -t 0.342128 -s 5 -d 4 -p ack -e 40 -c 1 -i 13 -a 1 -x {2.0 0.0 6 ------- null}
+ -t 0.342128 -s 4 -d 0 -p ack -e 40 -c 1 -i 13 -a 1 -x {2.0 0.0 6 ------- null}
- -t 0.342128 -s 4 -d 0 -p ack -e 40 -c 1 -i 13 -a 1 -x {2.0 0.0 6 ------- null}
h -t 0.342128 -s 4 -d 0 -p ack -e 40 -c 1 -i 13 -a 1 -x {2.0 0.0 -1 ------- null}
r -t 0.347168 -s 4 -d 0 -p ack -e 40 -c 1 -i 10 -a 1 -x {2.0 0.0 3 ------- null}
+ -t 0.347168 -s 0 -d 4 -p tcp -e 1040 -c 1 -i 14 -a 1 -x {0.0 2.0 7 ------- null}
- -t 0.347168 -s 0 -d 4 -p tcp -e 1040 -c 1 -i 14 -a 1 -x {0.0 2.0 7 ------- null}
h -t 0.347168 -s 0 -d 4 -p tcp -e 1040 -c 1 -i 14 -a 1 -x {0.0 2.0 -1 ------- null}
+ -t 0.347168 -s 0 -d 4 -p tcp -e 1040 -c 1 -i 15 -a 1 -x {0.0 2.0 8 ------- null}
- -t 0.348 -s 0 -d 4 -p tcp -e 1040 -c 1 -i 15 -a 1 -x {0.0 2.0 8 ------- null}
h -t 0.348 -s 0 -d 4 -p tcp -e 1040 -c 1 -i 15 -a 1 -x {0.0 2.0 -1 ------- null}
r -t 0.348832 -s 4 -d 0 -p ack -e 40 -c 1 -i 11 -a 1 -x {2.0 0.0 4 ------- null}
+ -t 0.348832 -s 0 -d 4 -p tcp -e 1040 -c 1 -i 16 -a 1 -x {0.0 2.0 9 ------- null}
+ -t 0.348832 -s 0 -d 4 -p tcp -e 1040 -c 1 -i 17 -a 1 -x {0.0 2.0 10 ------- null}
- -t 0.348832 -s 0 -d 4 -p tcp -e 1040 -c 1 -i 16 -a 1 -x {0.0 2.0 9 ------- null}
h -t 0.348832 -s 0 -d 4 -p tcp -e 1040 -c 1 -i 16 -a 1 -x {0.0 2.0 -1 ------- null}
- -t 0.349664 -s 0 -d 4 -p tcp -e 1040 -c 1 -i 17 -a 1 -x {0.0 2.0 10 ------- null}
h -t 0.349664 -s 0 -d 4 -p tcp -e 1040 -c 1 -i 17 -a 1 -x {0.0 2.0 -1 ------- null}
r -t 0.350496 -s 4 -d 0 -p ack -e 40 -c 1 -i 12 -a 1 -x {2.0 0.0 5 ------- null}
+ -t 0.350496 -s 0 -d 4 -p tcp -e 1040 -c 1 -i 18 -a 1 -x {0.0 2.0 11 ------- null}
+ -t 0.350496 -s 0 -d 4 -p tcp -e 1040 -c 1 -i 19 -a 1 -x {0.0 2.0 12 ------- null}
- -t 0.350496 -s 0 -d 4 -p tcp -e 1040 -c 1 -i 18 -a 1 -x {0.0 2.0 11 ------- null}
h -t 0.350496 -s 0 -d 4 -p tcp -e 1040 -c 1 -i 18 -a 1 -x {0.0 2.0 -1 ------- null}
- -t 0.351328 -s 0 -d 4 -p tcp -e 1040 -c 1 -i 19 -a 1 -x {0.0 2.0 12 ------- null}
h -t 0.351328 -s 0 -d 4 -p tcp -e 1040 -c 1 -i 19 -a 1 -x {0.0 2.0 -1 ------- null}
r -t 0.35216 -s 4 -d 0 -p ack -e 40 -c 1 -i 13 -a 1 -x {2.0 0.0 6 ------- null}
+ -t 0.35216 -s 0 -d 4 -p tcp -e 1040 -c 1 -i 20 -a 1 -x {0.0 2.0 13 ------- null}
+ -t 0.35216 -s 0 -d 4 -p tcp -e 1040 -c 1 -i 21 -a 1 -x {0.0 2.0 14 ------- null}
- -t 0.35216 -s 0 -d 4 -p tcp -e 1040 -c 1 -i 20 -a 1 -x {0.0 2.0 13 ------- null}
h -t 0.35216 -s 0 -d 4 -p tcp -e 1040 -c 1 -i 20 -a 1 -x {0.0 2.0 -1 ------- null}
- -t 0.352992 -s 0 -d 4 -p tcp -e 1040 -c 1 -i 21 -a 1 -x {0.0 2.0 14 ------- null}
h -t 0.352992 -s 0 -d 4 -p tcp -e 1040 -c 1 -i 21 -a 1 -x {0.0 2.0 -1 ------- null}
r -t 0.358 -s 0 -d 4 -p tcp -e 1040 -c 1 -i 14 -a 1 -x {0.0 2.0 7 ------- null}
+ -t 0.358 -s 4 -d 5 -p tcp -e 1040 -c 1 -i 14 -a 1 -x {0.0 2.0 7 ------- null}
- -t 0.358 -s 4 -d 5 -p tcp -e 1040 -c 1 -i 14 -a 1 -x {0.0 2.0 7 ------- null}
h -t 0.358 -s 4 -d 5 -p tcp -e 1040 -c 1 -i 14 -a 1 -x {0.0 2.0 -1 ------- null}
r -t 0.358832 -s 0 -d 4 -p tcp -e 1040 -c 1 -i 15 -a 1 -x {0.0 2.0 8 ------- null}
+ -t 0.358832 -s 4 -d 5 -p tcp -e 1040 -c 1 -i 15 -a 1 -x {0.0 2.0 8 ------- null}
r -t 0.359664 -s 0 -d 4 -p tcp -e 1040 -c 1 -i 16 -a 1 -x {0.0 2.0 9 ------- null}
+ -t 0.359664 -s 4 -d 5 -p tcp -e 1040 -c 1 -i 16 -a 1 -x {0.0 2.0 9 ------- null}
- -t 0.359664 -s 4 -d 5 -p tcp -e 1040 -c 1 -i 15 -a 1 -x {0.0 2.0 8 ------- null}
h -t 0.359664 -s 4 -d 5 -p tcp -e 1040 -c 1 -i 15 -a 1 -x {0.0 2.0 -1 ------- null}
r -t 0.360496 -s 0 -d 4 -p tcp -e 1040 -c 1 -i 17 -a 1 -x {0.0 2.0 10 ------- null}
+ -t 0.360496 -s 4 -d 5 -p tcp -e 1040 -c 1 -i 17 -a 1 -x {0.0 2.0 10 ------- null}
r -t 0.361328 -s 0 -d 4 -p tcp -e 1040 -c 1 -i 18 -a 1 -x {0.0 2.0 11 ------- null}
+ -t 0.361328 -s 4 -d 5 -p tcp -e 1040 -c 1 -i 18 -a 1 -x {0.0 2.0 11 ------- null}
- -t 0.361328 -s 4 -d 5 -p tcp -e 1040 -c 1 -i 16 -a 1 -x {0.0 2.0 9 ------- null}
h -t 0.361328 -s 4 -d 5 -p tcp -e 1040 -c 1 -i 16 -a 1 -x {0.0 2.0 -1 ------- null}
r -t 0.36216 -s 0 -d 4 -p tcp -e 1040 -c 1 -i 19 -a 1 -x {0.0 2.0 12 ------- null}
+ -t 0.36216 -s 4 -d 5 -p tcp -e 1040 -c 1 -i 19 -a 1 -x {0.0 2.0 12 ------- null}
r -t 0.362992 -s 0 -d 4 -p tcp -e 1040 -c 1 -i 20 -a 1 -x {0.0 2.0 13 ------- null}
+ -t 0.362992 -s 4 -d 5 -p tcp -e 1040 -c 1 -i 20 -a 1 -x {0.0 2.0 13 ------- null}
- -t 0.362992 -s 4 -d 5 -p tcp -e 1040 -c 1 -i 17 -a 1 -x {0.0 2.0 10 ------- null}
h -t 0.362992 -s 4 -d 5 -p tcp -e 1040 -c 1 -i 17 -a 1 -x {0.0 2.0 -1 ------- null}
r -t 0.363824 -s 0 -d 4 -p tcp -e 1040 -c 1 -i 21 -a 1 -x {0.0 2.0 14 ------- null}
+ -t 0.363824 -s 4 -d 5 -p tcp -e 1040 -c 1 -i 21 -a 1 -x {0.0 2.0 14 ------- null}
- -t 0.364656 -s 4 -d 5 -p tcp -e 1040 -c 1 -i 18 -a 1 -x {0.0 2.0 11 ------- null}
h -t 0.364656 -s 4 -d 5 -p tcp -e 1040 -c 1 -i 18 -a 1 -x {0.0 2.0 -1 ------- null}
- -t 0.36632 -s 4 -d 5 -p tcp -e 1040 -c 1 -i 19 -a 1 -x {0.0 2.0 12 ------- null}
h -t 0.36632 -s 4 -d 5 -p tcp -e 1040 -c 1 -i 19 -a 1 -x {0.0 2.0 -1 ------- null}
- -t 0.367984 -s 4 -d 5 -p tcp -e 1040 -c 1 -i 20 -a 1 -x {0.0 2.0 13 ------- null}
h -t 0.367984 -s 4 -d 5 -p tcp -e 1040 -c 1 -i 20 -a 1 -x {0.0 2.0 -1 ------- null}
- -t 0.369648 -s 4 -d 5 -p tcp -e 1040 -c 1 -i 21 -a 1 -x {0.0 2.0 14 ------- null}
h -t 0.369648 -s 4 -d 5 -p tcp -e 1040 -c 1 -i 21 -a 1 -x {0.0 2.0 -1 ------- null}
r -t 0.379664 -s 4 -d 5 -p tcp -e 1040 -c 1 -i 14 -a 1 -x {0.0 2.0 7 ------- null}
+ -t 0.379664 -s 5 -d 2 -p tcp -e 1040 -c 1 -i 14 -a 1 -x {0.0 2.0 7 ------- null}
- -t 0.379664 -s 5 -d 2 -p tcp -e 1040 -c 1 -i 14 -a 1 -x {0.0 2.0 7 ------- null}
h -t 0.379664 -s 5 -d 2 -p tcp -e 1040 -c 1 -i 14 -a 1 -x {0.0 2.0 -1 ------- null}
r -t 0.381328 -s 4 -d 5 -p tcp -e 1040 -c 1 -i 15 -a 1 -x {0.0 2.0 8 ------- null}
+ -t 0.381328 -s 5 -d 2 -p tcp -e 1040 -c 1 -i 15 -a 1 -x {0.0 2.0 8 ------- null}
- -t 0.381328 -s 5 -d 2 -p tcp -e 1040 -c 1 -i 15 -a 1 -x {0.0 2.0 8 ------- null}
h -t 0.381328 -s 5 -d 2 -p tcp -e 1040 -c 1 -i 15 -a 1 -x {0.0 2.0 -1 ------- null}
r -t 0.382992 -s 4 -d 5 -p tcp -e 1040 -c 1 -i 16 -a 1 -x {0.0 2.0 9 ------- null}
+ -t 0.382992 -s 5 -d 2 -p tcp -e 1040 -c 1 -i 16 -a 1 -x {0.0 2.0 9 ------- null}
- -t 0.382992 -s 5 -d 2 -p tcp -e 1040 -c 1 -i 16 -a 1 -x {0.0 2.0 9 ------- null}
h -t 0.382992 -s 5 -d 2 -p tcp -e 1040 -c 1 -i 16 -a 1 -x {0.0 2.0 -1 ------- null}
r -t 0.384656 -s 4 -d 5 -p tcp -e 1040 -c 1 -i 17 -a 1 -x {0.0 2.0 10 ------- null}
+ -t 0.384656 -s 5 -d 2 -p tcp -e 1040 -c 1 -i 17 -a 1 -x {0.0 2.0 10 ------- null}
- -t 0.384656 -s 5 -d 2 -p tcp -e 1040 -c 1 -i 17 -a 1 -x {0.0 2.0 10 ------- null}
h -t 0.384656 -s 5 -d 2 -p tcp -e 1040 -c 1 -i 17 -a 1 -x {0.0 2.0 -1 ------- null}
r -t 0.38632 -s 4 -d 5 -p tcp -e 1040 -c 1 -i 18 -a 1 -x {0.0 2.0 11 ------- null}
+ -t 0.38632 -s 5 -d 2 -p tcp -e 1040 -c 1 -i 18 -a 1 -x {0.0 2.0 11 ------- null}
- -t 0.38632 -s 5 -d 2 -p tcp -e 1040 -c 1 -i 18 -a 1 -x {0.0 2.0 11 ------- null}
h -t 0.38632 -s 5 -d 2 -p tcp -e 1040 -c 1 -i 18 -a 1 -x {0.0 2.0 -1 ------- null}
r -t 0.387984 -s 4 -d 5 -p tcp -e 1040 -c 1 -i 19 -a 1 -x {0.0 2.0 12 ------- null}
+ -t 0.387984 -s 5 -d 2 -p tcp -e 1040 -c 1 -i 19 -a 1 -x {0.0 2.0 12 ------- null}
- -t 0.387984 -s 5 -d 2 -p tcp -e 1040 -c 1 -i 19 -a 1 -x {0.0 2.0 12 ------- null}
h -t 0.387984 -s 5 -d 2 -p tcp -e 1040 -c 1 -i 19 -a 1 -x {0.0 2.0 -1 ------- null}
r -t 0.389648 -s 4 -d 5 -p tcp -e 1040 -c 1 -i 20 -a 1 -x {0.0 2.0 13 ------- null}
+ -t 0.389648 -s 5 -d 2 -p tcp -e 1040 -c 1 -i 20 -a 1 -x {0.0 2.0 13 ------- null}
- -t 0.389648 -s 5 -d 2 -p tcp -e 1040 -c 1 -i 20 -a 1 -x {0.0 2.0 13 ------- null}
h -t 0.389648 -s 5 -d 2 -p tcp -e 1040 -c 1 -i 20 -a 1 -x {0.0 2.0 -1 ------- null}
r -t 0.390496 -s 5 -d 2 -p tcp -e 1040 -c 1 -i 14 -a 1 -x {0.0 2.0 7 ------- null}
+ -t 0.390496 -s 2 -d 5 -p ack -e 40 -c 1 -i 22 -a 1 -x {2.0 0.0 7 ------- null}
- -t 0.390496 -s 2 -d 5 -p ack -e 40 -c 1 -i 22 -a 1 -x {2.0 0.0 7 ------- null}
h -t 0.390496 -s 2 -d 5 -p ack -e 40 -c 1 -i 22 -a 1 -x {2.0 0.0 -1 ------- null}
r -t 0.391312 -s 4 -d 5 -p tcp -e 1040 -c 1 -i 21 -a 1 -x {0.0 2.0 14 ------- null}
+ -t 0.391312 -s 5 -d 2 -p tcp -e 1040 -c 1 -i 21 -a 1 -x {0.0 2.0 14 ------- null}
- -t 0.391312 -s 5 -d 2 -p tcp -e 1040 -c 1 -i 21 -a 1 -x {0.0 2.0 14 ------- null}
h -t 0.391312 -s 5 -d 2 -p tcp -e 1040 -c 1 -i 21 -a 1 -x {0.0 2.0 -1 ------- null}
r -t 0.39216 -s 5 -d 2 -p tcp -e 1040 -c 1 -i 15 -a 1 -x {0.0 2.0 8 ------- null}
+ -t 0.39216 -s 2 -d 5 -p ack -e 40 -c 1 -i 23 -a 1 -x {2.0 0.0 8 ------- null}
- -t 0.39216 -s 2 -d 5 -p ack -e 40 -c 1 -i 23 -a 1 -x {2.0 0.0 8 ------- null}
h -t 0.39216 -s 2 -d 5 -p ack -e 40 -c 1 -i 23 -a 1 -x {2.0 0.0 -1 ------- null}
r -t 0.393824 -s 5 -d 2 -p tcp -e 1040 -c 1 -i 16 -a 1 -x {0.0 2.0 9 ------- null}
+ -t 0.393824 -s 2 -d 5 -p ack -e 40 -c 1 -i 24 -a 1 -x {2.0 0.0 9 ------- null}
- -t 0.393824 -s 2 -d 5 -p ack -e 40 -c 1 -i 24 -a 1 -x {2.0 0.0 9 ------- null}
h -t 0.393824 -s 2 -d 5 -p ack -e 40 -c 1 -i 24 -a 1 -x {2.0 0.0 -1 ------- null}
r -t 0.395488 -s 5 -d 2 -p tcp -e 1040 -c 1 -i 17 -a 1 -x {0.0 2.0 10 ------- null}
+ -t 0.395488 -s 2 -d 5 -p ack -e 40 -c 1 -i 25 -a 1 -x {2.0 0.0 10 ------- null}
- -t 0.395488 -s 2 -d 5 -p ack -e 40 -c 1 -i 25 -a 1 -x {2.0 0.0 10 ------- null}
h -t 0.395488 -s 2 -d 5 -p ack -e 40 -c 1 -i 25 -a 1 -x {2.0 0.0 -1 ------- null}
r -t 0.397152 -s 5 -d 2 -p tcp -e 1040 -c 1 -i 18 -a 1 -x {0.0 2.0 11 ------- null}
+ -t 0.397152 -s 2 -d 5 -p ack -e 40 -c 1 -i 26 -a 1 -x {2.0 0.0 11 ------- null}
- -t 0.397152 -s 2 -d 5 -p ack -e 40 -c 1 -i 26 -a 1 -x {2.0 0.0 11 ------- null}
h -t 0.397152 -s 2 -d 5 -p ack -e 40 -c 1 -i 26 -a 1 -x {2.0 0.0 -1 ------- null}
r -t 0.398816 -s 5 -d 2 -p tcp -e 1040 -c 1 -i 19 -a 1 -x {0.0 2.0 12 ------- null}
+ -t 0.398816 -s 2 -d 5 -p ack -e 40 -c 1 -i 27 -a 1 -x {2.0 0.0 12 ------- null}
- -t 0.398816 -s 2 -d 5 -p ack -e 40 -c 1 -i 27 -a 1 -x {2.0 0.0 12 ------- null}
h -t 0.398816 -s 2 -d 5 -p ack -e 40 -c 1 -i 27 -a 1 -x {2.0 0.0 -1 ------- null}
r -t 0.40048 -s 5 -d 2 -p tcp -e 1040 -c 1 -i 20 -a 1 -x {0.0 2.0 13 ------- null}
+ -t 0.40048 -s 2 -d 5 -p ack -e 40 -c 1 -i 28 -a 1 -x {2.0 0.0 13 ------- null}
- -t 0.40048 -s 2 -d 5 -p ack -e 40 -c 1 -i 28 -a 1 -x {2.0 0.0 13 ------- null}
h -t 0.40048 -s 2 -d 5 -p ack -e 40 -c 1 -i 28 -a 1 -x {2.0 0.0 -1 ------- null}
r -t 0.400528 -s 2 -d 5 -p ack -e 40 -c 1 -i 22 -a 1 -x {2.0 0.0 7 ------- null}
+ -t 0.400528 -s 5 -d 4 -p ack -e 40 -c 1 -i 22 -a 1 -x {2.0 0.0 7 ------- null}
- -t 0.400528 -s 5 -d 4 -p ack -e 40 -c 1 -i 22 -a 1 -x {2.0 0.0 7 ------- null}
h -t 0.400528 -s 5 -d 4 -p ack -e 40 -c 1 -i 22 -a 1 -x {2.0 0.0 -1 ------- null}
r -t 0.402144 -s 5 -d 2 -p tcp -e 1040 -c 1 -i 21 -a 1 -x {0.0 2.0 14 ------- null}
+ -t 0.402144 -s 2 -d 5 -p ack -e 40 -c 1 -i 29 -a 1 -x {2.0 0.0 14 ------- null}
- -t 0.402144 -s 2 -d 5 -p ack -e 40 -c 1 -i 29 -a 1 -x {2.0 0.0 14 ------- null}
h -t 0.402144 -s 2 -d 5 -p ack -e 40 -c 1 -i 29 -a 1 -x {2.0 0.0 -1 ------- null}
r -t 0.402192 -s 2 -d 5 -p ack -e 40 -c 1 -i 23 -a 1 -x {2.0 0.0 8 ------- null}
+ -t 0.402192 -s 5 -d 4 -p ack -e 40 -c 1 -i 23 -a 1 -x {2.0 0.0 8 ------- null}
- -t 0.402192 -s 5 -d 4 -p ack -e 40 -c 1 -i 23 -a 1 -x {2.0 0.0 8 ------- null}
h -t 0.402192 -s 5 -d 4 -p ack -e 40 -c 1 -i 23 -a 1 -x {2.0 0.0 -1 ------- null}
r -t 0.403856 -s 2 -d 5 -p ack -e 40 -c 1 -i 24 -a 1 -x {2.0 0.0 9 ------- null}
+ -t 0.403856 -s 5 -d 4 -p ack -e 40 -c 1 -i 24 -a 1 -x {2.0 0.0 9 ------- null}
- -t 0.403856 -s 5 -d 4 -p ack -e 40 -c 1 -i 24 -a 1 -x {2.0 0.0 9 ------- null}
h -t 0.403856 -s 5 -d 4 -p ack -e 40 -c 1 -i 24 -a 1 -x {2.0 0.0 -1 ------- null}
r -t 0.40552 -s 2 -d 5 -p ack -e 40 -c 1 -i 25 -a 1 -x {2.0 0.0 10 ------- null}
+ -t 0.40552 -s 5 -d 4 -p ack -e 40 -c 1 -i 25 -a 1 -x {2.0 0.0 10 ------- null}
- -t 0.40552 -s 5 -d 4 -p ack -e 40 -c 1 -i 25 -a 1 -x {2.0 0.0 10 ------- null}
h -t 0.40552 -s 5 -d 4 -p ack -e 40 -c 1 -i 25 -a 1 -x {2.0 0.0 -1 ------- null}
r -t 0.407184 -s 2 -d 5 -p ack -e 40 -c 1 -i 26 -a 1 -x {2.0 0.0 11 ------- null}
+ -t 0.407184 -s 5 -d 4 -p ack -e 40 -c 1 -i 26 -a 1 -x {2.0 0.0 11 ------- null}
- -t 0.407184 -s 5 -d 4 -p ack -e 40 -c 1 -i 26 -a 1 -x {2.0 0.0 11 ------- null}
h -t 0.407184 -s 5 -d 4 -p ack -e 40 -c 1 -i 26 -a 1 -x {2.0 0.0 -1 ------- null}
r -t 0.408848 -s 2 -d 5 -p ack -e 40 -c 1 -i 27 -a 1 -x {2.0 0.0 12 ------- null}
+ -t 0.408848 -s 5 -d 4 -p ack -e 40 -c 1 -i 27 -a 1 -x {2.0 0.0 12 ------- null}
- -t 0.408848 -s 5 -d 4 -p ack -e 40 -c 1 -i 27 -a 1 -x {2.0 0.0 12 ------- null}
h -t 0.408848 -s 5 -d 4 -p ack -e 40 -c 1 -i 27 -a 1 -x {2.0 0.0 -1 ------- null}
r -t 0.410512 -s 2 -d 5 -p ack -e 40 -c 1 -i 28 -a 1 -x {2.0 0.0 13 ------- null}
+ -t 0.410512 -s 5 -d 4 -p ack -e 40 -c 1 -i 28 -a 1 -x {2.0 0.0 13 ------- null}
- -t 0.410512 -s 5 -d 4 -p ack -e 40 -c 1 -i 28 -a 1 -x {2.0 0.0 13 ------- null}
h -t 0.410512 -s 5 -d 4 -p ack -e 40 -c 1 -i 28 -a 1 -x {2.0 0.0 -1 ------- null}
r -t 0.412176 -s 2 -d 5 -p ack -e 40 -c 1 -i 29 -a 1 -x {2.0 0.0 14 ------- null}
+ -t 0.412176 -s 5 -d 4 -p ack -e 40 -c 1 -i 29 -a 1 -x {2.0 0.0 14 ------- null}
- -t 0.412176 -s 5 -d 4 -p ack -e 40 -c 1 -i 29 -a 1 -x {2.0 0.0 14 ------- null}
h -t 0.412176 -s 5 -d 4 -p ack -e 40 -c 1 -i 29 -a 1 -x {2.0 0.0 -1 ------- null}
r -t 0.420592 -s 5 -d 4 -p ack -e 40 -c 1 -i 22 -a 1 -x {2.0 0.0 7 ------- null}
+ -t 0.420592 -s 4 -d 0 -p ack -e 40 -c 1 -i 22 -a 1 -x {2.0 0.0 7 ------- null}
- -t 0.420592 -s 4 -d 0 -p ack -e 40 -c 1 -i 22 -a 1 -x {2.0 0.0 7 ------- null}
h -t 0.420592 -s 4 -d 0 -p ack -e 40 -c 1 -i 22 -a 1 -x {2.0 0.0 -1 ------- null}
r -t 0.422256 -s 5 -d 4 -p ack -e 40 -c 1 -i 23 -a 1 -x {2.0 0.0 8 ------- null}
+ -t 0.422256 -s 4 -d 0 -p ack -e 40 -c 1 -i 23 -a 1 -x {2.0 0.0 8 ------- null}
- -t 0.422256 -s 4 -d 0 -p ack -e 40 -c 1 -i 23 -a 1 -x {2.0 0.0 8 ------- null}
h -t 0.422256 -s 4 -d 0 -p ack -e 40 -c 1 -i 23 -a 1 -x {2.0 0.0 -1 ------- null}
r -t 0.42392 -s 5 -d 4 -p ack -e 40 -c 1 -i 24 -a 1 -x {2.0 0.0 9 ------- null}
+ -t 0.42392 -s 4 -d 0 -p ack -e 40 -c 1 -i 24 -a 1 -x {2.0 0.0 9 ------- null}
- -t 0.42392 -s 4 -d 0 -p ack -e 40 -c 1 -i 24 -a 1 -x {2.0 0.0 9 ------- null}
h -t 0.42392 -s 4 -d 0 -p ack -e 40 -c 1 -i 24 -a 1 -x {2.0 0.0 -1 ------- null}
r -t 0.425584 -s 5 -d 4 -p ack -e 40 -c 1 -i 25 -a 1 -x {2.0 0.0 10 ------- null}
+ -t 0.425584 -s 4 -d 0 -p ack -e 40 -c 1 -i 25 -a 1 -x {2.0 0.0 10 ------- null}
- -t 0.425584 -s 4 -d 0 -p ack -e 40 -c 1 -i 25 -a 1 -x {2.0 0.0 10 ------- null}
h -t 0.425584 -s 4 -d 0 -p ack -e 40 -c 1 -i 25 -a 1 -x {2.0 0.0 -1 ------- null}
r -t 0.427248 -s 5 -d 4 -p ack -e 40 -c 1 -i 26 -a 1 -x {2.0 0.0 11 ------- null}
+ -t 0.427248 -s 4 -d 0 -p ack -e 40 -c 1 -i 26 -a 1 -x {2.0 0.0 11 ------- null}
- -t 0.427248 -s 4 -d 0 -p ack -e 40 -c 1 -i 26 -a 1 -x {2.0 0.0 11 ------- null}
h -t 0.427248 -s 4 -d 0 -p ack -e 40 -c 1 -i 26 -a 1 -x {2.0 0.0 -1 ------- null}
r -t 0.428912 -s 5 -d 4 -p ack -e 40 -c 1 -i 27 -a 1 -x {2.0 0.0 12 ------- null}
+ -t 0.428912 -s 4 -d 0 -p ack -e 40 -c 1 -i 27 -a 1 -x {2.0 0.0 12 ------- null}
- -t 0.428912 -s 4 -d 0 -p ack -e 40 -c 1 -i 27 -a 1 -x {2.0 0.0 12 ------- null}
h -t 0.428912 -s 4 -d 0 -p ack -e 40 -c 1 -i 27 -a 1 -x {2.0 0.0 -1 ------- null}
r -t 0.430576 -s 5 -d 4 -p ack -e 40 -c 1 -i 28 -a 1 -x {2.0 0.0 13 ------- null}
+ -t 0.430576 -s 4 -d 0 -p ack -e 40 -c 1 -i 28 -a 1 -x {2.0 0.0 13 ------- null}
- -t 0.430576 -s 4 -d 0 -p ack -e 40 -c 1 -i 28 -a 1 -x {2.0 0.0 13 ------- null}
h -t 0.430576 -s 4 -d 0 -p ack -e 40 -c 1 -i 28 -a 1 -x {2.0 0.0 -1 ------- null}
r -t 0.430624 -s 4 -d 0 -p ack -e 40 -c 1 -i 22 -a 1 -x {2.0 0.0 7 ------- null}
+ -t 0.430624 -s 0 -d 4 -p tcp -e 1040 -c 1 -i 30 -a 1 -x {0.0 2.0 15 ------- null}
- -t 0.430624 -s 0 -d 4 -p tcp -e 1040 -c 1 -i 30 -a 1 -x {0.0 2.0 15 ------- null}
h -t 0.430624 -s 0 -d 4 -p tcp -e 1040 -c 1 -i 30 -a 1 -x {0.0 2.0 -1 ------- null}
+ -t 0.430624 -s 0 -d 4 -p tcp -e 1040 -c 1 -i 31 -a 1 -x {0.0 2.0 16 ------- null}
- -t 0.431456 -s 0 -d 4 -p tcp -e 1040 -c 1 -i 31 -a 1 -x {0.0 2.0 16 ------- null}
h -t 0.431456 -s 0 -d 4 -p tcp -e 1040 -c 1 -i 31 -a 1 -x {0.0 2.0 -1 ------- null}