+ 0.1 0 4 tcp 40 ------- 1 0.0 2.0 0 0
- 0.1 0 4 tcp 40 ------- 1 0.0 2.0 0 0
r 0.11016 0 4 tcp 40 ------- 1 0.0 2.0 0 0
+ 0.11016 4 5 tcp 40 ------- 1 0.0 2.0 0 0
- 0.11016 4 5 tcp 40 ------- 1 0.0 2.0 0 0
r 0.130348 4 5 tcp 40 ------- 1 0.0 2.0 0 0
+ 0.130348 5 2 tcp 40 ------- 1 0.0 2.0 0 0
- 0.130348 5 2 tcp 40 ------- 1 0.0 2.0 0 0
r 0.140508 5 2 tcp 40 ------- 1 0.0 2.0 0 0
+ 0.140508 2 5 ack 40 ------- 1 2.0 0.0 0 1
- 0.140508 2 5 ack 40 ------- 1 2.0 0.0 0 1
r 0.150668 2 5 ack 40 ------- 1 2.0 0.0 0 1
+ 0.150668 5 4 ack 40 ------- 1 2.0 0.0 0 1
- 0.150668 5 4 ack 40 ------- 1 2.0 0.0 0 1
r 0.170856 5 4 ack 40 ------- 1 2.0 0.0 0 1
+ 0.170856 4 0 ack 40 ------- 1 2.0 0.0 0 1
- 0.170856 4 0 ack 40 ------- 1 2.0 0.0 0 1
r 0.181016 4 0 ack 40 ------- 1 2.0 0.0 0 1
+ 0.181016 0 4 tcp 1040 ------- 1 0.0 2.0 1 2
- 0.181016 0 4 tcp 1040 ------- 1 0.0 2.0 1 2
+ 0.181016 0 4 tcp 1040 ------- 1 0.0 2.0 2 3
- 0.185176 0 4 tcp 1040 ------- 1 0.0 2.0 2 3
r 0.195176 0 4 tcp 1040 ------- 1 0.0 2.0 1 2
+ 0.195176 4 5 tcp 1040 ------- 1 0.0 2.0 1 2
- 0.195176 4 5 tcp 1040 ------- 1 0.0 2.0 1 2
r 0.199336 0 4 tcp 1040 ------- 1 0.0 2.0 2 3
+ 0.199336 4 5 tcp 1040 ------- 1 0.0 2.0 2 3
- 0.200071 4 5 tcp 1040 ------- 1 0.0 2.0 2 3
r 0.220071 4 5 tcp 1040 ------- 1 0.0 2.0 1 2
+ 0.220071 5 2 tcp 1040 ------- 1 0.0 2.0 1 2
- 0.220071 5 2 tcp 1040 ------- 1 0.0 2.0 1 2
r 0.224965 4 5 tcp 1040 ------- 1 0.0 2.0 2 3
+ 0.224965 5 2 tcp 1040 ------- 1 0.0 2.0 2 3
- 0.224965 5 2 tcp 1040 ------- 1 0.0 2.0 2 3
r 0.234231 5 2 tcp 1040 ------- 1 0.0 2.0 1 2
+ 0.234231 2 5 ack 40 ------- 1 2.0 0.0 1 4
- 0.234231 2 5 ack 40 ------- 1 2.0 0.0 1 4
r 0.239125 5 2 tcp 1040 ------- 1 0.0 2.0 2 3
+ 0.239125 2 5 ack 40 ------- 1 2.0 0.0 2 5
- 0.239125 2 5 ack 40 ------- 1 2.0 0.0 2 5
r 0.244391 2 5 ack 40 ------- 1 2.0 0.0 1 4
+ 0.244391 5 4 ack 40 ------- 1 2.0 0.0 1 4
- 0.244391 5 4 ack 40 ------- 1 2.0 0.0 1 4
r 0.249285 2 5 ack 40 ------- 1 2.0 0.0 2 5
+ 0.249285 5 4 ack 40 ------- 1 2.0 0.0 2 5
- 0.249285 5 4 ack 40 ------- 1 2.0 0.0 2 5
r 0.264579 5 4 ack 40 ------- 1 2.0 0.0 1 4
+ 0.264579 4 0 ack 40 ------- 1 2.0 0.0 1 4
- 0.264579 4 0 ack 40 ------- 1 2.0 0.0 1 4
r 0.269473 5 4 ack 40 ------- 1 2.0 0.0 2 5
+ 0.269473 4 0 ack 40 ------- 1 2.0 0.0 2 5
- 0.269473 4 0 ack 40 ------- 1 2.0 0.0 2 5
r 0.274739 4 0 ack 40 ------- 1 2.0 0.0 1 4
+ 0.274739 0 4 tcp 1040 ------- 1 0.0 2.0 3 6
- 0.274739 0 4 tcp 1040 ------- 1 0.0 2.0 3 6
+ 0.274739 0 4 tcp 1040 ------- 1 0.0 2.0 4 7
- 0.278899 0 4 tcp 1040 ------- 1 0.0 2.0 4 7
r 0.279633 4 0 ack 40 ------- 1 2.0 0.0 2 5
+ 0.279633 0 4 tcp 1040 ------- 1 0.0 2.0 5 8
+ 0.279633 0 4 tcp 1040 ------- 1 0.0 2.0 6 9
- 0.283059 0 4 tcp 1040 ------- 1 0.0 2.0 5 8
- 0.287219 0 4 tcp 1040 ------- 1 0.0 2.0 6 9
r 0.288899 0 4 tcp 1040 ------- 1 0.0 2.0 3 6
+ 0.288899 4 5 tcp 1040 ------- 1 0.0 2.0 3 6
- 0.288899 4 5 tcp 1040 ------- 1 0.0 2.0 3 6
r 0.293059 0 4 tcp 1040 ------- 1 0.0 2.0 4 7
+ 0.293059 4 5 tcp 1040 ------- 1 0.0 2.0 4 7
- 0.293793 4 5 tcp 1040 ------- 1 0.0 2.0 4 7
r 0.297219 0 4 tcp 1040 ------- 1 0.0 2.0 5 8
+ 0.297219 4 5 tcp 1040 ------- 1 0.0 2.0 5 8
- 0.298687 4 5 tcp 1040 ------- 1 0.0 2.0 5 8
r 0.301379 0 4 tcp 1040 ------- 1 0.0 2.0 6 9
+ 0.301379 4 5 tcp 1040 ------- 1 0.0 2.0 6 9
- 0.303581 4 5 tcp 1040 ------- 1 0.0 2.0 6 9
r 0.313793 4 5 tcp 1040 ------- 1 0.0 2.0 3 6
+ 0.313793 5 2 tcp 1040 ------- 1 0.0 2.0 3 6
- 0.313793 5 2 tcp 1040 ------- 1 0.0 2.0 3 6
r 0.318687 4 5 tcp 1040 ------- 1 0.0 2.0 4 7
+ 0.318687 5 2 tcp 1040 ------- 1 0.0 2.0 4 7
- 0.318687 5 2 tcp 1040 ------- 1 0.0 2.0 4 7
r 0.323581 4 5 tcp 1040 ------- 1 0.0 2.0 5 8
+ 0.323581 5 2 tcp 1040 ------- 1 0.0 2.0 5 8
- 0.323581 5 2 tcp 1040 ------- 1 0.0 2.0 5 8
r 0.327953 5 2 tcp 1040 ------- 1 0.0 2.0 3 6
+ 0.327953 2 5 ack 40 ------- 1 2.0 0.0 3 10
- 0.327953 2 5 ack 40 ------- 1 2.0 0.0 3 10
r 0.328475 4 5 tcp 1040 ------- 1 0.0 2.0 6 9
+ 0.328475 5 2 tcp 1040 ------- 1 0.0 2.0 6 9
- 0.328475 5 2 tcp 1040 ------- 1 0.0 2.0 6 9
r 0.332847 5 2 tcp 1040 ------- 1 0.0 2.0 4 7
+ 0.332847 2 5 ack 40 ------- 1 2.0 0.0 4 11
- 0.332847 2 5 ack 40 ------- 1 2.0 0.0 4 11
r 0.337741 5 2 tcp 1040 ------- 1 0.0 2.0 5 8
+ 0.337741 2 5 ack 40 ------- 1 2.0 0.0 5 12
- 0.337741 2 5 ack 40 ------- 1 2.0 0.0 5 12
r 0.338113 2 5 ack 40 ------- 1 2.0 0.0 3 10
+ 0.338113 5 4 ack 40 ------- 1 2.0 0.0 3 10
- 0.338113 5 4 ack 40 ------- 1 2.0 0.0 3 10
r 0.342635 5 2 tcp 1040 ------- 1 0.0 2.0 6 9
+ 0.342635 2 5 ack 40 ------- 1 2.0 0.0 6 13
- 0.342635 2 5 ack 40 ------- 1 2.0 0.0 6 13
r 0.343007 2 5 ack 40 ------- 1 2.0 0.0 4 11
+ 0.343007 5 4 ack 40 ------- 1 2.0 0.0 4 11
- 0.343007 5 4 ack 40 ------- 1 2.0 0.0 4 11
r 0.347901 2 5 ack 40 ------- 1 2.0 0.0 5 12
+ 0.347901 5 4 ack 40 ------- 1 2.0 0.0 5 12
- 0.347901 5 4 ack 40 ------- 1 2.0 0.0 5 12
r 0.352795 2 5 ack 40 ------- 1 2.0 0.0 6 13
+ 0.352795 5 4 ack 40 ------- 1 2.0 0.0 6 13
- 0.352795 5 4 ack 40 ------- 1 2.0 0.0 6 13
r 0.358301 5 4 ack 40 ------- 1 2.0 0.0 3 10
+ 0.358301 4 0 ack 40 ------- 1 2.0 0.0 3 10
- 0.358301 4 0 ack 40 ------- 1 2.0 0.0 3 10
r 0.363195 5 4 ack 40 ------- 1 2.0 0.0 4 11
+ 0.363195 4 0 ack 40 ------- 1 2.0 0.0 4 11
- 0.363195 4 0 ack 40 ------- 1 2.0 0.0 4 11
r 0.368089 5 4 ack 40 ------- 1 2.0 0.0 5 12
+ 0.368089 4 0 ack 40 ------- 1 2.0 0.0 5 12
- 0.368089 4 0 ack 40 ------- 1 2.0 0.0 5 12
r 0.368461 4 0 ack 40 ------- 1 2.0 0.0 3 10
+ 0.368461 0 4 tcp 1040 ------- 1 0.0 2.0 7 14
- 0.368461 0 4 tcp 1040 ------- 1 0.0 2.0 7 14
+ 0.368461 0 4 tcp 1040 ------- 1 0.0 2.0 8 15
- 0.372621 0 4 tcp 1040 ------- 1 0.0 2.0 8 15
r 0.372984 5 4 ack 40 ------- 1 2.0 0.0 6 13
+ 0.372984 4 0 ack 40 ------- 1 2.0 0.0 6 13
- 0.372984 4 0 ack 40 ------- 1 2.0 0.0 6 13
r 0.373355 4 0 ack 40 ------- 1 2.0 0.0 4 11
+ 0.373355 0 4 tcp 1040 ------- 1 0.0 2.0 9 16
+ 0.373355 0 4 tcp 1040 ------- 1 0.0 2.0 10 17
- 0.376781 0 4 tcp 1040 ------- 1 0.0 2.0 9 16
r 0.378249 4 0 ack 40 ------- 1 2.0 0.0 5 12
+ 0.378249 0 4 tcp 1040 ------- 1 0.0 2.0 11 18
+ 0.378249 0 4 tcp 1040 ------- 1 0.0 2.0 12 19
- 0.380941 0 4 tcp 1040 ------- 1 0.0 2.0 10 17
r 0.382621 0 4 tcp 1040 ------- 1 0.0 2.0 7 14
+ 0.382621 4 5 tcp 1040 ------- 1 0.0 2.0 7 14
- 0.382621 4 5 tcp 1040 ------- 1 0.0 2.0 7 14
r 0.383144 4 0 ack 40 ------- 1 2.0 0.0 6 13
+ 0.383144 0 4 tcp 1040 ------- 1 0.0 2.0 13 20
+ 0.383144 0 4 tcp 1040 ------- 1 0.0 2.0 14 21
- 0.385101 0 4 tcp 1040 ------- 1 0.0 2.0 11 18
r 0.386781 0 4 tcp 1040 ------- 1 0.0 2.0 8 15
+ 0.386781 4 5 tcp 1040 ------- 1 0.0 2.0 8 15
- 0.387515 4 5 tcp 1040 ------- 1 0.0 2.0 8 15
- 0.389261 0 4 tcp 1040 ------- 1 0.0 2.0 12 19
r 0.390941 0 4 tcp 1040 ------- 1 0.0 2.0 9 16
+ 0.390941 4 5 tcp 1040 ------- 1 0.0 2.0 9 16
- 0.392409 4 5 tcp 1040 ------- 1 0.0 2.0 9 16
- 0.393421 0 4 tcp 1040 ------- 1 0.0 2.0 13 20
r 0.395101 0 4 tcp 1040 ------- 1 0.0 2.0 10 17
+ 0.395101 4 5 tcp 1040 ------- 1 0.0 2.0 10 17
- 0.397304 4 5 tcp 1040 ------- 1 0.0 2.0 10 17
- 0.397581 0 4 tcp 1040 ------- 1 0.0 2.0 14 21
r 0.399261 0 4 tcp 1040 ------- 1 0.0 2.0 11 18
+ 0.399261 4 5 tcp 1040 ------- 1 0.0 2.0 11 18
- 0.402198 4 5 tcp 1040 ------- 1 0.0 2.0 11 18
r 0.403421 0 4 tcp 1040 ------- 1 0.0 2.0 12 19
+ 0.403421 4 5 tcp 1040 ------- 1 0.0 2.0 12 19
- 0.407092 4 5 tcp 1040 ------- 1 0.0 2.0 12 19
r 0.407515 4 5 tcp 1040 ------- 1 0.0 2.0 7 14
+ 0.407515 5 2 tcp 1040 ------- 1 0.0 2.0 7 14
- 0.407515 5 2 tcp 1040 ------- 1 0.0 2.0 7 14
r 0.407581 0 4 tcp 1040 ------- 1 0.0 2.0 13 20
+ 0.407581 4 5 tcp 1040 ------- 1 0.0 2.0 13 20
r 0.411741 0 4 tcp 1040 ------- 1 0.0 2.0 14 21
+ 0.411741 4 5 tcp 1040 ------- 1 0.0 2.0 14 21
- 0.411986 4 5 tcp 1040 ------- 1 0.0 2.0 13 20
r 0.412409 4 5 tcp 1040 ------- 1 0.0 2.0 8 15
+ 0.412409 5 2 tcp 1040 ------- 1 0.0 2.0 8 15
- 0.412409 5 2 tcp 1040 ------- 1 0.0 2.0 8 15
- 0.41688 4 5 tcp 1040 ------- 1 0.0 2.0 14 21
r 0.417304 4 5 tcp 1040 ------- 1 0.0 2.0 9 16
+ 0.417304 5 2 tcp 1040 ------- 1 0.0 2.0 9 16
- 0.417304 5 2 tcp 1040 ------- 1 0.0 2.0 9 16
r 0.421675 5 2 tcp 1040 ------- 1 0.0 2.0 7 14
+ 0.421675 2 5 ack 40 ------- 1 2.0 0.0 7 22
- 0.421675 2 5 ack 40 ------- 1 2.0 0.0 7 22
r 0.422198 4 5 tcp 1040 ------- 1 0.0 2.0 10 17
+ 0.422198 5 2 tcp 1040 ------- 1 0.0 2.0 10 17
- 0.422198 5 2 tcp 1040 ------- 1 0.0 2.0 10 17
r 0.426569 5 2 tcp 1040 ------- 1 0.0 2.0 8 15
+ 0.426569 2 5 ack 40 ------- 1 2.0 0.0 8 23
- 0.426569 2 5 ack 40 ------- 1 2.0 0.0 8 23
r 0.427092 4 5 tcp 1040 ------- 1 0.0 2.0 11 18
+ 0.427092 5 2 tcp 1040 ------- 1 0.0 2.0 11 18
- 0.427092 5 2 tcp 1040 ------- 1 0.0 2.0 11 18
r 0.431464 5 2 tcp 1040 ------- 1 0.0 2.0 9 16
+ 0.431464 2 5 ack 40 ------- 1 2.0 0.0 9 24
- 0.431464 2 5 ack 40 ------- 1 2.0 0.0 9 24
r 0.431835 2 5 ack 40 ------- 1 2.0 0.0 7 22
+ 0.431835 5 4 ack 40 ------- 1 2.0 0.0 7 22
- 0.431835 5 4 ack 40 ------- 1 2.0 0.0 7 22
r 0.431986 4 5 tcp 1040 ------- 1 0.0 2.0 12 19
+ 0.431986 5 2 tcp 1040 ------- 1 0.0 2.0 12 19
- 0.431986 5 2 tcp 1040 ------- 1 0.0 2.0 12 19
r 0.436358 5 2 tcp 1040 ------- 1 0.0 2.0 10 17
+ 0.436358 2 5 ack 40 ------- 1 2.0 0.0 10 25
- 0.436358 2 5 ack 40 ------- 1 2.0 0.0 10 25
r 0.436729 2 5 ack 40 ------- 1 2.0 0.0 8 23
+ 0.436729 5 4 ack 40 ------- 1 2.0 0.0 8 23
- 0.436729 5 4 ack 40 ------- 1 2.0 0.0 8 23
r 0.43688 4 5 tcp 1040 ------- 1 0.0 2.0 13 20
+ 0.43688 5 2 tcp 1040 ------- 1 0.0 2.0 13 20
- 0.43688 5 2 tcp 1040 ------- 1 0.0 2.0 13 20
r 0.441252 5 2 tcp 1040 ------- 1 0.0 2.0 11 18
+ 0.441252 2 5 ack 40 ------- 1 2.0 0.0 11 26
- 0.441252 2 5 ack 40 ------- 1 2.0 0.0 11 26
r 0.441624 2 5 ack 40 ------- 1 2.0 0.0 9 24
+ 0.441624 5 4 ack 40 ------- 1 2.0 0.0 9 24
- 0.441624 5 4 ack 40 ------- 1 2.0 0.0 9 24
r 0.441774 4 5 tcp 1040 ------- 1 0.0 2.0 14 21
+ 0.441774 5 2 tcp 1040 ------- 1 0.0 2.0 14 21
- 0.441774 5 2 tcp 1040 ------- 1 0.0 2.0 14 21
r 0.446146 5 2 tcp 1040 ------- 1 0.0 2.0 12 19
+ 0.446146 2 5 ack 40 ------- 1 2.0 0.0 12 27
- 0.446146 2 5 ack 40 ------- 1 2.0 0.0 12 27
r 0.446518 2 5 ack 40 ------- 1 2.0 0.0 10 25
+ 0.446518 5 4 ack 40 ------- 1 2.0 0.0 10 25
- 0.446518 5 4 ack 40 ------- 1 2.0 0.0 10 25
r 0.45104 5 2 tcp 1040 ------- 1 0.0 2.0 13 20
+ 0.45104 2 5 ack 40 ------- 1 2.0 0.0 13 28
- 0.45104 2 5 ack 40 ------- 1 2.0 0.0 13 28
r 0.451412 2 5 ack 40 ------- 1 2.0 0.0 11 26
+ 0.451412 5 4 ack 40 ------- 1 2.0 0.0 11 26
- 0.451412 5 4 ack 40 ------- 1 2.0 0.0 11 26
r 0.452024 5 4 ack 40 ------- 1 2.0 0.0 7 22
+ 0.452024 4 0 ack 40 ------- 1 2.0 0.0 7 22
- 0.452024 4 0 ack 40 ------- 1 2.0 0.0 7 22
r 0.455934 5 2 tcp 1040 ------- 1 0.0 2.0 14 21
+ 0.455934 2 5 ack 40 ------- 1 2.0 0.0 14 29
- 0.455934 2 5 ack 40 ------- 1 2.0 0.0 14 29
r 0.456306 2 5 ack 40 ------- 1 2.0 0.0 12 27
+ 0.456306 5 4 ack 40 ------- 1 2.0 0.0 12 27
- 0.456306 5 4 ack 40 ------- 1 2.0 0.0 12 27
r 0.456918 5 4 ack 40 ------- 1 2.0 0.0 8 23
+ 0.456918 4 0 ack 40 ------- 1 2.0 0.0 8 23
- 0.456918 4 0 ack 40 ------- 1 2.0 0.0 8 23
r 0.4612 2 5 ack 40 ------- 1 2.0 0.0 13 28
+ 0.4612 5 4 ack 40 ------- 1 2.0 0.0 13 28
- 0.4612 5 4 ack 40 ------- 1 2.0 0.0 13 28
r 0.461812 5 4 ack 40 ------- 1 2.0 0.0 9 24
+ 0.461812 4 0 ack 40 ------- 1 2.0 0.0 9 24
- 0.461812 4 0 ack 40 ------- 1 2.0 0.0 9 24
r 0.462184 4 0 ack 40 ------- 1 2.0 0.0 7 22
+ 0.462184 0 4 tcp 1040 ------- 1 0.0 2.0 15 30
- 0.462184 0 4 tcp 1040 ------- 1 0.0 2.0 15 30
+ 0.462184 0 4 tcp 1040 ------- 1 0.0 2.0 16 31
r 0.466094 2 5 ack 40 ------- 1 2.0 0.0 14 29
+ 0.466094 5 4 ack 40 ------- 1 2.0 0.0 14 29
- 0.466094 5 4 ack 40 ------- 1 2.0 0.0 14 29
- 0.466344 0 4 tcp 1040 ------- 1 0.0 2.0 16 31
r 0.466706 5 4 ack 40 ------- 1 2.0 0.0 10 25
+ 0.466706 4 0 ack 40 ------- 1 2.0 0.0 10 25
- 0.466706 4 0 ack 40 ------- 1 2.0 0.0 10 25
r 0.467078 4 0 ack 40 ------- 1 2.0 0.0 8 23
+ 0.467078 0 4 tcp 1040 ------- 1 0.0 2.0 17 32
+ 0.467078 0 4 tcp 1040 ------- 1 0.0 2.0 18 33
- 0.470504 0 4 tcp 1040 ------- 1 0.0 2.0 17 32
r 0.4716 5 4 ack 40 ------- 1 2.0 0.0 11 26
+ 0.4716 4 0 ack 40 ------- 1 2.0 0.0 11 26
- 0.4716 4 0 ack 40 ------- 1 2.0 0.0 11 26
r 0.471972 4 0 ack 40 ------- 1 2.0 0.0 9 24
+ 0.471972 0 4 tcp 1040 ------- 1 0.0 2.0 19 34
+ 0.471972 0 4 tcp 1040 ------- 1 0.0 2.0 20 35
- 0.474664 0 4 tcp 1040 ------- 1 0.0 2.0 18 33
r 0.476344 0 4 tcp 1040 ------- 1 0.0 2.0 15 30
+ 0.476344 4 5 tcp 1040 ------- 1 0.0 2.0 15 30
- 0.476344 4 5 tcp 1040 ------- 1 0.0 2.0 15 30
r 0.476494 5 4 ack 40 ------- 1 2.0 0.0 12 27
+ 0.476494 4 0 ack 40 ------- 1 2.0 0.0 12 27
- 0.476494 4 0 ack 40 ------- 1 2.0 0.0 12 27
r 0.476866 4 0 ack 40 ------- 1 2.0 0.0 10 25
+ 0.476866 0 4 tcp 1040 ------- 1 0.0 2.0 21 36
+ 0.476866 0 4 tcp 1040 ------- 1 0.0 2.0 22 37
- 0.478824 0 4 tcp 1040 ------- 1 0.0 2.0 19 34
r 0.480504 0 4 tcp 1040 ------- 1 0.0 2.0 16 31
+ 0.480504 4 5 tcp 1040 ------- 1 0.0 2.0 16 31
- 0.481238 4 5 tcp 1040 ------- 1 0.0 2.0 16 31
r 0.481388 5 4 ack 40 ------- 1 2.0 0.0 13 28
+ 0.481388 4 0 ack 40 ------- 1 2.0 0.0 13 28
- 0.481388 4 0 ack 40 ------- 1 2.0 0.0 13 28
r 0.48176 4 0 ack 40 ------- 1 2.0 0.0 11 26
+ 0.48176 0 4 tcp 1040 ------- 1 0.0 2.0 23 38
+ 0.48176 0 4 tcp 1040 ------- 1 0.0 2.0 24 39
- 0.482984 0 4 tcp 1040 ------- 1 0.0 2.0 20 35
r 0.484664 0 4 tcp 1040 ------- 1 0.0 2.0 17 32
+ 0.484664 4 5 tcp 1040 ------- 1 0.0 2.0 17 32
- 0.486132 4 5 tcp 1040 ------- 1 0.0 2.0 17 32
r 0.486282 5 4 ack 40 ------- 1 2.0 0.0 14 29
+ 0.486282 4 0 ack 40 ------- 1 2.0 0.0 14 29
- 0.486282 4 0 ack 40 ------- 1 2.0 0.0 14 29
r 0.486654 4 0 ack 40 ------- 1 2.0 0.0 12 27
+ 0.486654 0 4 tcp 1040 ------- 1 0.0 2.0 25 40
+ 0.486654 0 4 tcp 1040 ------- 1 0.0 2.0 26 41
- 0.487144 0 4 tcp 1040 ------- 1 0.0 2.0 21 36
r 0.488824 0 4 tcp 1040 ------- 1 0.0 2.0 18 33
+ 0.488824 4 5 tcp 1040 ------- 1 0.0 2.0 18 33
- 0.491026 4 5 tcp 1040 ------- 1 0.0 2.0 18 33
- 0.491304 0 4 tcp 1040 ------- 1 0.0 2.0 22 37
r 0.491548 4 0 ack 40 ------- 1 2.0 0.0 13 28
+ 0.491548 0 4 tcp 1040 ------- 1 0.0 2.0 27 42
+ 0.491548 0 4 tcp 1040 ------- 1 0.0 2.0 28 43
r 0.492984 0 4 tcp 1040 ------- 1 0.0 2.0 19 34
+ 0.492984 4 5 tcp 1040 ------- 1 0.0 2.0 19 34
- 0.495464 0 4 tcp 1040 ------- 1 0.0 2.0 23 38
- 0.49592 4 5 tcp 1040 ------- 1 0.0 2.0 19 34
r 0.496442 4 0 ack 40 ------- 1 2.0 0.0 14 29
+ 0.496442 0 4 tcp 1040 ------- 1 0.0 2.0 29 44
+ 0.496442 0 4 tcp 1040 ------- 1 0.0 2.0 30 45
r 0.497144 0 4 tcp 1040 ------- 1 0.0 2.0 20 35
+ 0.497144 4 5 tcp 1040 ------- 1 0.0 2.0 20 35
- 0.499624 0 4 tcp 1040 ------- 1 0.0 2.0 24 39
+ 0.5 1 4 tcp 40 ------- 2 1.0 3.0 0 46
- 0.5 1 4 tcp 40 ------- 2 1.0 3.0 0 46
- 0.500814 4 5 tcp 1040 ------- 1 0.0 2.0 20 35
r 0.501238 4 5 tcp 1040 ------- 1 0.0 2.0 15 30
+ 0.501238 5 2 tcp 1040 ------- 1 0.0 2.0 15 30
- 0.501238 5 2 tcp 1040 ------- 1 0.0 2.0 15 30
r 0.501304 0 4 tcp 1040 ------- 1 0.0 2.0 21 36
+ 0.501304 4 5 tcp 1040 ------- 1 0.0 2.0 21 36
- 0.503784 0 4 tcp 1040 ------- 1 0.0 2.0 25 40
r 0.505464 0 4 tcp 1040 ------- 1 0.0 2.0 22 37
+ 0.505464 4 5 tcp 1040 ------- 1 0.0 2.0 22 37
- 0.505708 4 5 tcp 1040 ------- 1 0.0 2.0 21 36
r 0.506132 4 5 tcp 1040 ------- 1 0.0 2.0 16 31
+ 0.506132 5 2 tcp 1040 ------- 1 0.0 2.0 16 31
- 0.506132 5 2 tcp 1040 ------- 1 0.0 2.0 16 31
- 0.507944 0 4 tcp 1040 ------- 1 0.0 2.0 26 41
r 0.509624 0 4 tcp 1040 ------- 1 0.0 2.0 23 38
+ 0.509624 4 5 tcp 1040 ------- 1 0.0 2.0 23 38
r 0.51016 1 4 tcp 40 ------- 2 1.0 3.0 0 46
+ 0.51016 4 5 tcp 40 ------- 2 1.0 3.0 0 46
- 0.510602 4 5 tcp 1040 ------- 1 0.0 2.0 22 37
r 0.511026 4 5 tcp 1040 ------- 1 0.0 2.0 17 32
+ 0.511026 5 2 tcp 1040 ------- 1 0.0 2.0 17 32
- 0.511026 5 2 tcp 1040 ------- 1 0.0 2.0 17 32
- 0.512104 0 4 tcp 1040 ------- 1 0.0 2.0 27 42
r 0.513784 0 4 tcp 1040 ------- 1 0.0 2.0 24 39
+ 0.513784 4 5 tcp 1040 ------- 1 0.0 2.0 24 39
r 0.515398 5 2 tcp 1040 ------- 1 0.0 2.0 15 30
+ 0.515398 2 5 ack 40 ------- 1 2.0 0.0 15 47
- 0.515398 2 5 ack 40 ------- 1 2.0 0.0 15 47
- 0.515496 4 5 tcp 1040 ------- 1 0.0 2.0 23 38
r 0.51592 4 5 tcp 1040 ------- 1 0.0 2.0 18 33
+ 0.51592 5 2 tcp 1040 ------- 1 0.0 2.0 18 33
- 0.51592 5 2 tcp 1040 ------- 1 0.0 2.0 18 33
- 0.516264 0 4 tcp 1040 ------- 1 0.0 2.0 28 43
r 0.517944 0 4 tcp 1040 ------- 1 0.0 2.0 25 40
+ 0.517944 4 5 tcp 1040 ------- 1 0.0 2.0 25 40
r 0.520292 5 2 tcp 1040 ------- 1 0.0 2.0 16 31
+ 0.520292 2 5 ack 40 ------- 1 2.0 0.0 16 48
- 0.520292 2 5 ack 40 ------- 1 2.0 0.0 16 48
- 0.520391 4 5 tcp 40 ------- 2 1.0 3.0 0 46
- 0.520424 0 4 tcp 1040 ------- 1 0.0 2.0 29 44
- 0.520579 4 5 tcp 1040 ------- 1 0.0 2.0 24 39
r 0.520814 4 5 tcp 1040 ------- 1 0.0 2.0 19 34
+ 0.520814 5 2 tcp 1040 ------- 1 0.0 2.0 19 34
- 0.520814 5 2 tcp 1040 ------- 1 0.0 2.0 19 34
r 0.522104 0 4 tcp 1040 ------- 1 0.0 2.0 26 41
+ 0.522104 4 5 tcp 1040 ------- 1 0.0 2.0 26 41
- 0.524584 0 4 tcp 1040 ------- 1 0.0 2.0 30 45
r 0.525186 5 2 tcp 1040 ------- 1 0.0 2.0 17 32
+ 0.525186 2 5 ack 40 ------- 1 2.0 0.0 17 49
- 0.525186 2 5 ack 40 ------- 1 2.0 0.0 17 49
- 0.525473 4 5 tcp 1040 ------- 1 0.0 2.0 25 40
r 0.525558 2 5 ack 40 ------- 1 2.0 0.0 15 47
+ 0.525558 5 4 ack 40 ------- 1 2.0 0.0 15 47
- 0.525558 5 4 ack 40 ------- 1 2.0 0.0 15 47
r 0.525708 4 5 tcp 1040 ------- 1 0.0 2.0 20 35
+ 0.525708 5 2 tcp 1040 ------- 1 0.0 2.0 20 35
- 0.525708 5 2 tcp 1040 ------- 1 0.0 2.0 20 35
r 0.526264 0 4 tcp 1040 ------- 1 0.0 2.0 27 42
+ 0.526264 4 5 tcp 1040 ------- 1 0.0 2.0 27 42
r 0.53008 5 2 tcp 1040 ------- 1 0.0 2.0 18 33
+ 0.53008 2 5 ack 40 ------- 1 2.0 0.0 18 50
- 0.53008 2 5 ack 40 ------- 1 2.0 0.0 18 50
- 0.530367 4 5 tcp 1040 ------- 1 0.0 2.0 26 41
r 0.530424 0 4 tcp 1040 ------- 1 0.0 2.0 28 43
+ 0.530424 4 5 tcp 1040 ------- 1 0.0 2.0 28 43
r 0.530452 2 5 ack 40 ------- 1 2.0 0.0 16 48
+ 0.530452 5 4 ack 40 ------- 1 2.0 0.0 16 48
- 0.530452 5 4 ack 40 ------- 1 2.0 0.0 16 48
r 0.530602 4 5 tcp 1040 ------- 1 0.0 2.0 21 36
+ 0.530602 5 2 tcp 1040 ------- 1 0.0 2.0 21 36
- 0.530602 5 2 tcp 1040 ------- 1 0.0 2.0 21 36
r 0.534584 0 4 tcp 1040 ------- 1 0.0 2.0 29 44
+ 0.534584 4 5 tcp 1040 ------- 1 0.0 2.0 29 44
r 0.534974 5 2 tcp 1040 ------- 1 0.0 2.0 19 34
+ 0.534974 2 5 ack 40 ------- 1 2.0 0.0 19 51
- 0.534974 2 5 ack 40 ------- 1 2.0 0.0 19 51
- 0.535261 4 5 tcp 1040 ------- 1 0.0 2.0 27 42
r 0.535346 2 5 ack 40 ------- 1 2.0 0.0 17 49
+ 0.535346 5 4 ack 40 ------- 1 2.0 0.0 17 49
- 0.535346 5 4 ack 40 ------- 1 2.0 0.0 17 49
r 0.535496 4 5 tcp 1040 ------- 1 0.0 2.0 22 37
+ 0.535496 5 2 tcp 1040 ------- 1 0.0 2.0 22 37
- 0.535496 5 2 tcp 1040 ------- 1 0.0 2.0 22 37
r 0.538744 0 4 tcp 1040 ------- 1 0.0 2.0 30 45
+ 0.538744 4 5 tcp 1040 ------- 1 0.0 2.0 30 45
r 0.539868 5 2 tcp 1040 ------- 1 0.0 2.0 20 35
+ 0.539868 2 5 ack 40 ------- 1 2.0 0.0 20 52
- 0.539868 2 5 ack 40 ------- 1 2.0 0.0 20 52
- 0.540155 4 5 tcp 1040 ------- 1 0.0 2.0 28 43
r 0.54024 2 5 ack 40 ------- 1 2.0 0.0 18 50
+ 0.54024 5 4 ack 40 ------- 1 2.0 0.0 18 50
- 0.54024 5 4 ack 40 ------- 1 2.0 0.0 18 50
r 0.540391 4 5 tcp 1040 ------- 1 0.0 2.0 23 38
+ 0.540391 5 2 tcp 1040 ------- 1 0.0 2.0 23 38
- 0.540391 5 2 tcp 1040 ------- 1 0.0 2.0 23 38
r 0.540579 4 5 tcp 40 ------- 2 1.0 3.0 0 46
+ 0.540579 5 3 tcp 40 ------- 2 1.0 3.0 0 46
- 0.540579 5 3 tcp 40 ------- 2 1.0 3.0 0 46
r 0.544762 5 2 tcp 1040 ------- 1 0.0 2.0 21 36
+ 0.544762 2 5 ack 40 ------- 1 2.0 0.0 21 53
- 0.544762 2 5 ack 40 ------- 1 2.0 0.0 21 53
- 0.545049 4 5 tcp 1040 ------- 1 0.0 2.0 29 44
r 0.545134 2 5 ack 40 ------- 1 2.0 0.0 19 51
+ 0.545134 5 4 ack 40 ------- 1 2.0 0.0 19 51
- 0.545134 5 4 ack 40 ------- 1 2.0 0.0 19 51
r 0.545473 4 5 tcp 1040 ------- 1 0.0 2.0 24 39
+ 0.545473 5 2 tcp 1040 ------- 1 0.0 2.0 24 39
- 0.545473 5 2 tcp 1040 ------- 1 0.0 2.0 24 39
r 0.545746 5 4 ack 40 ------- 1 2.0 0.0 15 47
+ 0.545746 4 0 ack 40 ------- 1 2.0 0.0 15 47
- 0.545746 4 0 ack 40 ------- 1 2.0 0.0 15 47
r 0.549656 5 2 tcp 1040 ------- 1 0.0 2.0 22 37
+ 0.549656 2 5 ack 40 ------- 1 2.0 0.0 22 54
- 0.549656 2 5 ack 40 ------- 1 2.0 0.0 22 54
- 0.549944 4 5 tcp 1040 ------- 1 0.0 2.0 30 45
r 0.550028 2 5 ack 40 ------- 1 2.0 0.0 20 52
+ 0.550028 5 4 ack 40 ------- 1 2.0 0.0 20 52
- 0.550028 5 4 ack 40 ------- 1 2.0 0.0 20 52
r 0.550367 4 5 tcp 1040 ------- 1 0.0 2.0 25 40
+ 0.550367 5 2 tcp 1040 ------- 1 0.0 2.0 25 40
- 0.550367 5 2 tcp 1040 ------- 1 0.0 2.0 25 40
r 0.55064 5 4 ack 40 ------- 1 2.0 0.0 16 48
+ 0.55064 4 0 ack 40 ------- 1 2.0 0.0 16 48
- 0.55064 4 0 ack 40 ------- 1 2.0 0.0 16 48
r 0.550739 5 3 tcp 40 ------- 2 1.0 3.0 0 46
+ 0.550739 3 5 ack 40 ------- 2 3.0 1.0 0 55
- 0.550739 3 5 ack 40 ------- 2 3.0 1.0 0 55
r 0.554551 5 2 tcp 1040 ------- 1 0.0 2.0 23 38
+ 0.554551 2 5 ack 40 ------- 1 2.0 0.0 23 56
- 0.554551 2 5 ack 40 ------- 1 2.0 0.0 23 56
r 0.554922 2 5 ack 40 ------- 1 2.0 0.0 21 53
+ 0.554922 5 4 ack 40 ------- 1 2.0 0.0 21 53
- 0.554922 5 4 ack 40 ------- 1 2.0 0.0 21 53
r 0.555261 4 5 tcp 1040 ------- 1 0.0 2.0 26 41
+ 0.555261 5 2 tcp 1040 ------- 1 0.0 2.0 26 41
- 0.555261 5 2 tcp 1040 ------- 1 0.0 2.0 26 41
r 0.555534 5 4 ack 40 ------- 1 2.0 0.0 17 49
+ 0.555534 4 0 ack 40 ------- 1 2.0 0.0 17 49
- 0.555534 4 0 ack 40 ------- 1 2.0 0.0 17 49
r 0.555906 4 0 ack 40 ------- 1 2.0 0.0 15 47
+ 0.555906 0 4 tcp 1040 ------- 1 0.0 2.0 31 57
- 0.555906 0 4 tcp 1040 ------- 1 0.0 2.0 31 57
+ 0.555906 0 4 tcp 1040 ------- 1 0.0 2.0 32 58
r 0.559633 5 2 tcp 1040 ------- 1 0.0 2.0 24 39
+ 0.559633 2 5 ack 40 ------- 1 2.0 0.0 24 59
- 0.559633 2 5 ack 40 ------- 1 2.0 0.0 24 59
r 0.559816 2 5 ack 40 ------- 1 2.0 0.0 22 54
+ 0.559816 5 4 ack 40 ------- 1 2.0 0.0 22 54
- 0.559816 5 4 ack 40 ------- 1 2.0 0.0 22 54
- 0.560066 0 4 tcp 1040 ------- 1 0.0 2.0 32 58
r 0.560155 4 5 tcp 1040 ------- 1 0.0 2.0 27 42
+ 0.560155 5 2 tcp 1040 ------- 1 0.0 2.0 27 42
- 0.560155 5 2 tcp 1040 ------- 1 0.0 2.0 27 42
r 0.560428 5 4 ack 40 ------- 1 2.0 0.0 18 50
+ 0.560428 4 0 ack 40 ------- 1 2.0 0.0 18 50
- 0.560428 4 0 ack 40 ------- 1 2.0 0.0 18 50
r 0.5608 4 0 ack 40 ------- 1 2.0 0.0 16 48
+ 0.5608 0 4 tcp 1040 ------- 1 0.0 2.0 33 60
+ 0.5608 0 4 tcp 1040 ------- 1 0.0 2.0 34 61
r 0.560899 3 5 ack 40 ------- 2 3.0 1.0 0 55
+ 0.560899 5 4 ack 40 ------- 2 3.0 1.0 0 55
- 0.560899 5 4 ack 40 ------- 2 3.0 1.0 0 55
- 0.564226 0 4 tcp 1040 ------- 1 0.0 2.0 33 60
r 0.564527 5 2 tcp 1040 ------- 1 0.0 2.0 25 40
+ 0.564527 2 5 ack 40 ------- 1 2.0 0.0 25 62
- 0.564527 2 5 ack 40 ------- 1 2.0 0.0 25 62
r 0.564711 2 5 ack 40 ------- 1 2.0 0.0 23 56
+ 0.564711 5 4 ack 40 ------- 1 2.0 0.0 23 56
- 0.564711 5 4 ack 40 ------- 1 2.0 0.0 23 56
r 0.565049 4 5 tcp 1040 ------- 1 0.0 2.0 28 43
+ 0.565049 5 2 tcp 1040 ------- 1 0.0 2.0 28 43
- 0.565049 5 2 tcp 1040 ------- 1 0.0 2.0 28 43
r 0.565322 5 4 ack 40 ------- 1 2.0 0.0 19 51
+ 0.565322 4 0 ack 40 ------- 1 2.0 0.0 19 51
- 0.565322 4 0 ack 40 ------- 1 2.0 0.0 19 51
r 0.565694 4 0 ack 40 ------- 1 2.0 0.0 17 49
+ 0.565694 0 4 tcp 1040 ------- 1 0.0 2.0 35 63
+ 0.565694 0 4 tcp 1040 ------- 1 0.0 2.0 36 64
- 0.568386 0 4 tcp 1040 ------- 1 0.0 2.0 34 61
r 0.569421 5 2 tcp 1040 ------- 1 0.0 2.0 26 41
+ 0.569421 2 5 ack 40 ------- 1 2.0 0.0 26 65
- 0.569421 2 5 ack 40 ------- 1 2.0 0.0 26 65
r 0.569793 2 5 ack 40 ------- 1 2.0 0.0 24 59
+ 0.569793 5 4 ack 40 ------- 1 2.0 0.0 24 59
- 0.569793 5 4 ack 40 ------- 1 2.0 0.0 24 59
r 0.569944 4 5 tcp 1040 ------- 1 0.0 2.0 29 44
+ 0.569944 5 2 tcp 1040 ------- 1 0.0 2.0 29 44
- 0.569944 5 2 tcp 1040 ------- 1 0.0 2.0 29 44
r 0.570066 0 4 tcp 1040 ------- 1 0.0 2.0 31 57
+ 0.570066 4 5 tcp 1040 ------- 1 0.0 2.0 31 57
- 0.570066 4 5 tcp 1040 ------- 1 0.0 2.0 31 57
r 0.570216 5 4 ack 40 ------- 1 2.0 0.0 20 52
+ 0.570216 4 0 ack 40 ------- 1 2.0 0.0 20 52
- 0.570216 4 0 ack 40 ------- 1 2.0 0.0 20 52
r 0.570588 4 0 ack 40 ------- 1 2.0 0.0 18 50
+ 0.570588 0 4 tcp 1040 ------- 1 0.0 2.0 37 66
+ 0.570588 0 4 tcp 1040 ------- 1 0.0 2.0 38 67
- 0.572546 0 4 tcp 1040 ------- 1 0.0 2.0 35 63
r 0.574226 0 4 tcp 1040 ------- 1 0.0 2.0 32 58
+ 0.574226 4 5 tcp 1040 ------- 1 0.0 2.0 32 58
r 0.574315 5 2 tcp 1040 ------- 1 0.0 2.0 27 42
+ 0.574315 2 5 ack 40 ------- 1 2.0 0.0 27 68
- 0.574315 2 5 ack 40 ------- 1 2.0 0.0 27 68
r 0.574687 2 5 ack 40 ------- 1 2.0 0.0 25 62
+ 0.574687 5 4 ack 40 ------- 1 2.0 0.0 25 62
- 0.574687 5 4 ack 40 ------- 1 2.0 0.0 25 62
r 0.574838 4 5 tcp 1040 ------- 1 0.0 2.0 30 45
+ 0.574838 5 2 tcp 1040 ------- 1 0.0 2.0 30 45
- 0.574838 5 2 tcp 1040 ------- 1 0.0 2.0 30 45
- 0.57496 4 5 tcp 1040 ------- 1 0.0 2.0 32 58
r 0.575111 5 4 ack 40 ------- 1 2.0 0.0 21 53
+ 0.575111 4 0 ack 40 ------- 1 2.0 0.0 21 53
- 0.575111 4 0 ack 40 ------- 1 2.0 0.0 21 53
r 0.575482 4 0 ack 40 ------- 1 2.0 0.0 19 51
+ 0.575482 0 4 tcp 1040 ------- 1 0.0 2.0 39 69
- 0.576706 0 4 tcp 1040 ------- 1 0.0 2.0 36 64
r 0.578386 0 4 tcp 1040 ------- 1 0.0 2.0 33 60
+ 0.578386 4 5 tcp 1040 ------- 1 0.0 2.0 33 60
r 0.579209 5 2 tcp 1040 ------- 1 0.0 2.0 28 43
+ 0.579209 2 5 ack 40 ------- 1 2.0 0.0 28 70
- 0.579209 2 5 ack 40 ------- 1 2.0 0.0 28 70
r 0.579581 2 5 ack 40 ------- 1 2.0 0.0 26 65
+ 0.579581 5 4 ack 40 ------- 1 2.0 0.0 26 65
- 0.579581 5 4 ack 40 ------- 1 2.0 0.0 26 65
- 0.579854 4 5 tcp 1040 ------- 1 0.0 2.0 33 60
r 0.580005 5 4 ack 40 ------- 1 2.0 0.0 22 54
+ 0.580005 4 0 ack 40 ------- 1 2.0 0.0 22 54
- 0.580005 4 0 ack 40 ------- 1 2.0 0.0 22 54
r 0.580376 4 0 ack 40 ------- 1 2.0 0.0 20 52
+ 0.580376 0 4 tcp 1040 ------- 1 0.0 2.0 40 71
- 0.580866 0 4 tcp 1040 ------- 1 0.0 2.0 37 66
r 0.581087 5 4 ack 40 ------- 2 3.0 1.0 0 55
+ 0.581087 4 1 ack 40 ------- 2 3.0 1.0 0 55
- 0.581087 4 1 ack 40 ------- 2 3.0 1.0 0 55
r 0.582546 0 4 tcp 1040 ------- 1 0.0 2.0 34 61
+ 0.582546 4 5 tcp 1040 ------- 1 0.0 2.0 34 61
r 0.584104 5 2 tcp 1040 ------- 1 0.0 2.0 29 44
+ 0.584104 2 5 ack 40 ------- 1 2.0 0.0 29 72
- 0.584104 2 5 ack 40 ------- 1 2.0 0.0 29 72
r 0.584475 2 5 ack 40 ------- 1 2.0 0.0 27 68
+ 0.584475 5 4 ack 40 ------- 1 2.0 0.0 27 68
- 0.584475 5 4 ack 40 ------- 1 2.0 0.0 27 68
- 0.584748 4 5 tcp 1040 ------- 1 0.0 2.0 34 61
r 0.584899 5 4 ack 40 ------- 1 2.0 0.0 23 56
+ 0.584899 4 0 ack 40 ------- 1 2.0 0.0 23 56
- 0.584899 4 0 ack 40 ------- 1 2.0 0.0 23 56
- 0.585026 0 4 tcp 1040 ------- 1 0.0 2.0 38 67
r 0.585271 4 0 ack 40 ------- 1 2.0 0.0 21 53
+ 0.585271 0 4 tcp 1040 ------- 1 0.0 2.0 41 73
r 0.586706 0 4 tcp 1040 ------- 1 0.0 2.0 35 63
+ 0.586706 4 5 tcp 1040 ------- 1 0.0 2.0 35 63
r 0.588998 5 2 tcp 1040 ------- 1 0.0 2.0 30 45
+ 0.588998 2 5 ack 40 ------- 1 2.0 0.0 30 74
- 0.588998 2 5 ack 40 ------- 1 2.0 0.0 30 74
- 0.589186 0 4 tcp 1040 ------- 1 0.0 2.0 39 69
r 0.589369 2 5 ack 40 ------- 1 2.0 0.0 28 70
+ 0.589369 5 4 ack 40 ------- 1 2.0 0.0 28 70
- 0.589369 5 4 ack 40 ------- 1 2.0 0.0 28 70
- 0.589642 4 5 tcp 1040 ------- 1 0.0 2.0 35 63
r 0.589981 5 4 ack 40 ------- 1 2.0 0.0 24 59
+ 0.589981 4 0 ack 40 ------- 1 2.0 0.0 24 59
- 0.589981 4 0 ack 40 ------- 1 2.0 0.0 24 59
r 0.590165 4 0 ack 40 ------- 1 2.0 0.0 22 54
+ 0.590165 0 4 tcp 1040 ------- 1 0.0 2.0 42 75
r 0.590866 0 4 tcp 1040 ------- 1 0.0 2.0 36 64
+ 0.590866 4 5 tcp 1040 ------- 1 0.0 2.0 36 64
r 0.591247 4 1 ack 40 ------- 2 3.0 1.0 0 55
+ 0.591247 1 4 tcp 1040 ------- 2 1.0 3.0 1 76
- 0.591247 1 4 tcp 1040 ------- 2 1.0 3.0 1 76
+ 0.591247 1 4 tcp 1040 ------- 2 1.0 3.0 2 77
- 0.593346 0 4 tcp 1040 ------- 1 0.0 2.0 40 71
r 0.594264 2 5 ack 40 ------- 1 2.0 0.0 29 72
+ 0.594264 5 4 ack 40 ------- 1 2.0 0.0 29 72
- 0.594264 5 4 ack 40 ------- 1 2.0 0.0 29 72
- 0.594536 4 5 tcp 1040 ------- 1 0.0 2.0 36 64
r 0.594875 5 4 ack 40 ------- 1 2.0 0.0 25 62
+ 0.594875 4 0 ack 40 ------- 1 2.0 0.0 25 62
- 0.594875 4 0 ack 40 ------- 1 2.0 0.0 25 62
r 0.59496 4 5 tcp 1040 ------- 1 0.0 2.0 31 57
+ 0.59496 5 2 tcp 1040 ------- 1 0.0 2.0 31 57
- 0.59496 5 2 tcp 1040 ------- 1 0.0 2.0 31 57
r 0.595026 0 4 tcp 1040 ------- 1 0.0 2.0 37 66
+ 0.595026 4 5 tcp 1040 ------- 1 0.0 2.0 37 66
r 0.595059 4 0 ack 40 ------- 1 2.0 0.0 23 56
+ 0.595059 0 4 tcp 1040 ------- 1 0.0 2.0 43 78
- 0.595407 1 4 tcp 1040 ------- 2 1.0 3.0 2 77
- 0.597506 0 4 tcp 1040 ------- 1 0.0 2.0 41 73
r 0.599158 2 5 ack 40 ------- 1 2.0 0.0 30 74
+ 0.599158 5 4 ack 40 ------- 1 2.0 0.0 30 74
- 0.599158 5 4 ack 40 ------- 1 2.0 0.0 30 74
r 0.599186 0 4 tcp 1040 ------- 1 0.0 2.0 38 67
+ 0.599186 4 5 tcp 1040 ------- 1 0.0 2.0 38 67
- 0.599431 4 5 tcp 1040 ------- 1 0.0 2.0 37 66
r 0.599769 5 4 ack 40 ------- 1 2.0 0.0 26 65
+ 0.599769 4 0 ack 40 ------- 1 2.0 0.0 26 65
- 0.599769 4 0 ack 40 ------- 1 2.0 0.0 26 65
r 0.599854 4 5 tcp 1040 ------- 1 0.0 2.0 32 58
+ 0.599854 5 2 tcp 1040 ------- 1 0.0 2.0 32 58
- 0.599854 5 2 tcp 1040 ------- 1 0.0 2.0 32 58
r 0.600141 4 0 ack 40 ------- 1 2.0 0.0 24 59
+ 0.600141 0 4 tcp 1040 ------- 1 0.0 2.0 44 79
- 0.601666 0 4 tcp 1040 ------- 1 0.0 2.0 42 75
r 0.603346 0 4 tcp 1040 ------- 1 0.0 2.0 39 69
+ 0.603346 4 5 tcp 1040 ------- 1 0.0 2.0 39 69
- 0.604325 4 5 tcp 1040 ------- 1 0.0 2.0 38 67
r 0.604664 5 4 ack 40 ------- 1 2.0 0.0 27 68
+ 0.604664 4 0 ack 40 ------- 1 2.0 0.0 27 68
- 0.604664 4 0 ack 40 ------- 1 2.0 0.0 27 68
r 0.604748 4 5 tcp 1040 ------- 1 0.0 2.0 33 60
+ 0.604748 5 2 tcp 1040 ------- 1 0.0 2.0 33 60
- 0.604748 5 2 tcp 1040 ------- 1 0.0 2.0 33 60
r 0.605035 4 0 ack 40 ------- 1 2.0 0.0 25 62
+ 0.605035 0 4 tcp 1040 ------- 1 0.0 2.0 45 80
r 0.605407 1 4 tcp 1040 ------- 2 1.0 3.0 1 76
+ 0.605407 4 5 tcp 1040 ------- 2 1.0 3.0 1 76
- 0.605826 0 4 tcp 1040 ------- 1 0.0 2.0 43 78
r 0.607506 0 4 tcp 1040 ------- 1 0.0 2.0 40 71
+ 0.607506 4 5 tcp 1040 ------- 1 0.0 2.0 40 71
r 0.60912 5 2 tcp 1040 ------- 1 0.0 2.0 31 57
+ 0.60912 2 5 ack 40 ------- 1 2.0 0.0 31 81
- 0.60912 2 5 ack 40 ------- 1 2.0 0.0 31 81
- 0.609219 4 5 tcp 1040 ------- 1 0.0 2.0 39 69
r 0.609558 5 4 ack 40 ------- 1 2.0 0.0 28 70
+ 0.609558 4 0 ack 40 ------- 1 2.0 0.0 28 70
- 0.609558 4 0 ack 40 ------- 1 2.0 0.0 28 70
r 0.609567 1 4 tcp 1040 ------- 2 1.0 3.0 2 77
+ 0.609567 4 5 tcp 1040 ------- 2 1.0 3.0 2 77
r 0.609642 4 5 tcp 1040 ------- 1 0.0 2.0 34 61
+ 0.609642 5 2 tcp 1040 ------- 1 0.0 2.0 34 61
- 0.609642 5 2 tcp 1040 ------- 1 0.0 2.0 34 61