+ 0.1 0 4 tcp 40 ------- 1 0.0 2.0 0 0
- 0.1 0 4 tcp 40 ------- 1 0.0 2.0 0 0
r 0.110032 0 4 tcp 40 ------- 1 0.0 2.0 0 0
+ 0.110032 4 5 tcp 40 ------- 1 0.0 2.0 0 0
- 0.110032 4 5 tcp 40 ------- 1 0.0 2.0 0 0
r 0.130096 4 5 tcp 40 ------- 1 0.0 2.0 0 0
+ 0.130096 5 2 tcp 40 ------- 1 0.0 2.0 0 0
- 0.130096 5 2 tcp 40 ------- 1 0.0 2.0 0 0
r 0.140128 5 2 tcp 40 ------- 1 0.0 2.0 0 0
+ 0.140128 2 5 ack 40 ------- 1 2.0 0.0 0 1
- 0.140128 2 5 ack 40 ------- 1 2.0 0.0 0 1
r 0.15016 2 5 ack 40 ------- 1 2.0 0.0 0 1
+ 0.15016 5 4 ack 40 ------- 1 2.0 0.0 0 1
- 0.15016 5 4 ack 40 ------- 1 2.0 0.0 0 1
r 0.170224 5 4 ack 40 ------- 1 2.0 0.0 0 1
+ 0.170224 4 0 ack 40 ------- 1 2.0 0.0 0 1
- 0.170224 4 0 ack 40 ------- 1 2.0 0.0 0 1
r 0.180256 4 0 ack 40 ------- 1 2.0 0.0 0 1
+ 0.180256 0 4 tcp 1040 ------- 1 0.0 2.0 1 2
- 0.180256 0 4 tcp 1040 ------- 1 0.0 2.0 1 2
+ 0.180256 0 4 tcp 1040 ------- 1 0.0 2.0 2 3
- 0.181088 0 4 tcp 1040 ------- 1 0.0 2.0 2 3
r 0.191088 0 4 tcp 1040 ------- 1 0.0 2.0 1 2
+ 0.191088 4 5 tcp 1040 ------- 1 0.0 2.0 1 2
- 0.191088 4 5 tcp 1040 ------- 1 0.0 2.0 1 2
r 0.19192 0 4 tcp 1040 ------- 1 0.0 2.0 2 3
+ 0.19192 4 5 tcp 1040 ------- 1 0.0 2.0 2 3
- 0.192752 4 5 tcp 1040 ------- 1 0.0 2.0 2 3
r 0.212752 4 5 tcp 1040 ------- 1 0.0 2.0 1 2
+ 0.212752 5 2 tcp 1040 ------- 1 0.0 2.0 1 2
- 0.212752 5 2 tcp 1040 ------- 1 0.0 2.0 1 2
r 0.214416 4 5 tcp 1040 ------- 1 0.0 2.0 2 3
+ 0.214416 5 2 tcp 1040 ------- 1 0.0 2.0 2 3
- 0.214416 5 2 tcp 1040 ------- 1 0.0 2.0 2 3
r 0.223584 5 2 tcp 1040 ------- 1 0.0 2.0 1 2
+ 0.223584 2 5 ack 40 ------- 1 2.0 0.0 1 4
- 0.223584 2 5 ack 40 ------- 1 2.0 0.0 1 4
r 0.225248 5 2 tcp 1040 ------- 1 0.0 2.0 2 3
+ 0.225248 2 5 ack 40 ------- 1 2.0 0.0 2 5
- 0.225248 2 5 ack 40 ------- 1 2.0 0.0 2 5
r 0.233616 2 5 ack 40 ------- 1 2.0 0.0 1 4
+ 0.233616 5 4 ack 40 ------- 1 2.0 0.0 1 4
- 0.233616 5 4 ack 40 ------- 1 2.0 0.0 1 4
r 0.23528 2 5 ack 40 ------- 1 2.0 0.0 2 5
+ 0.23528 5 4 ack 40 ------- 1 2.0 0.0 2 5
- 0.23528 5 4 ack 40 ------- 1 2.0 0.0 2 5
r 0.25368 5 4 ack 40 ------- 1 2.0 0.0 1 4
+ 0.25368 4 0 ack 40 ------- 1 2.0 0.0 1 4
- 0.25368 4 0 ack 40 ------- 1 2.0 0.0 1 4
r 0.255344 5 4 ack 40 ------- 1 2.0 0.0 2 5
+ 0.255344 4 0 ack 40 ------- 1 2.0 0.0 2 5
- 0.255344 4 0 ack 40 ------- 1 2.0 0.0 2 5
r 0.263712 4 0 ack 40 ------- 1 2.0 0.0 1 4
+ 0.263712 0 4 tcp 1040 ------- 1 0.0 2.0 3 6
- 0.263712 0 4 tcp 1040 ------- 1 0.0 2.0 3 6
+ 0.263712 0 4 tcp 1040 ------- 1 0.0 2.0 4 7
- 0.264544 0 4 tcp 1040 ------- 1 0.0 2.0 4 7
r 0.265376 4 0 ack 40 ------- 1 2.0 0.0 2 5
+ 0.265376 0 4 tcp 1040 ------- 1 0.0 2.0 5 8
+ 0.265376 0 4 tcp 1040 ------- 1 0.0 2.0 6 9
- 0.265376 0 4 tcp 1040 ------- 1 0.0 2.0 5 8
- 0.266208 0 4 tcp 1040 ------- 1 0.0 2.0 6 9
r 0.274544 0 4 tcp 1040 ------- 1 0.0 2.0 3 6
+ 0.274544 4 5 tcp 1040 ------- 1 0.0 2.0 3 6
- 0.274544 4 5 tcp 1040 ------- 1 0.0 2.0 3 6
r 0.275376 0 4 tcp 1040 ------- 1 0.0 2.0 4 7
+ 0.275376 4 5 tcp 1040 ------- 1 0.0 2.0 4 7
r 0.276208 0 4 tcp 1040 ------- 1 0.0 2.0 5 8
+ 0.276208 4 5 tcp 1040 ------- 1 0.0 2.0 5 8
- 0.276208 4 5 tcp 1040 ------- 1 0.0 2.0 4 7
r 0.27704 0 4 tcp 1040 ------- 1 0.0 2.0 6 9
+ 0.27704 4 5 tcp 1040 ------- 1 0.0 2.0 6 9
- 0.277872 4 5 tcp 1040 ------- 1 0.0 2.0 5 8
- 0.279536 4 5 tcp 1040 ------- 1 0.0 2.0 6 9
r 0.296208 4 5 tcp 1040 ------- 1 0.0 2.0 3 6
+ 0.296208 5 2 tcp 1040 ------- 1 0.0 2.0 3 6
- 0.296208 5 2 tcp 1040 ------- 1 0.0 2.0 3 6
r 0.297872 4 5 tcp 1040 ------- 1 0.0 2.0 4 7
+ 0.297872 5 2 tcp 1040 ------- 1 0.0 2.0 4 7
- 0.297872 5 2 tcp 1040 ------- 1 0.0 2.0 4 7
r 0.299536 4 5 tcp 1040 ------- 1 0.0 2.0 5 8
+ 0.299536 5 2 tcp 1040 ------- 1 0.0 2.0 5 8
- 0.299536 5 2 tcp 1040 ------- 1 0.0 2.0 5 8
r 0.3012 4 5 tcp 1040 ------- 1 0.0 2.0 6 9
+ 0.3012 5 2 tcp 1040 ------- 1 0.0 2.0 6 9
- 0.3012 5 2 tcp 1040 ------- 1 0.0 2.0 6 9
r 0.30704 5 2 tcp 1040 ------- 1 0.0 2.0 3 6
+ 0.30704 2 5 ack 40 ------- 1 2.0 0.0 3 10
- 0.30704 2 5 ack 40 ------- 1 2.0 0.0 3 10
r 0.308704 5 2 tcp 1040 ------- 1 0.0 2.0 4 7
+ 0.308704 2 5 ack 40 ------- 1 2.0 0.0 4 11
- 0.308704 2 5 ack 40 ------- 1 2.0 0.0 4 11
r 0.310368 5 2 tcp 1040 ------- 1 0.0 2.0 5 8
+ 0.310368 2 5 ack 40 ------- 1 2.0 0.0 5 12
- 0.310368 2 5 ack 40 ------- 1 2.0 0.0 5 12
r 0.312032 5 2 tcp 1040 ------- 1 0.0 2.0 6 9
+ 0.312032 2 5 ack 40 ------- 1 2.0 0.0 6 13
- 0.312032 2 5 ack 40 ------- 1 2.0 0.0 6 13
r 0.317072 2 5 ack 40 ------- 1 2.0 0.0 3 10
+ 0.317072 5 4 ack 40 ------- 1 2.0 0.0 3 10
- 0.317072 5 4 ack 40 ------- 1 2.0 0.0 3 10
r 0.318736 2 5 ack 40 ------- 1 2.0 0.0 4 11
+ 0.318736 5 4 ack 40 ------- 1 2.0 0.0 4 11
- 0.318736 5 4 ack 40 ------- 1 2.0 0.0 4 11
r 0.3204 2 5 ack 40 ------- 1 2.0 0.0 5 12
+ 0.3204 5 4 ack 40 ------- 1 2.0 0.0 5 12
- 0.3204 5 4 ack 40 ------- 1 2.0 0.0 5 12
r 0.322064 2 5 ack 40 ------- 1 2.0 0.0 6 13
+ 0.322064 5 4 ack 40 ------- 1 2.0 0.0 6 13
- 0.322064 5 4 ack 40 ------- 1 2.0 0.0 6 13
r 0.337136 5 4 ack 40 ------- 1 2.0 0.0 3 10
+ 0.337136 4 0 ack 40 ------- 1 2.0 0.0 3 10
- 0.337136 4 0 ack 40 ------- 1 2.0 0.0 3 10
r 0.3388 5 4 ack 40 ------- 1 2.0 0.0 4 11
+ 0.3388 4 0 ack 40 ------- 1 2.0 0.0 4 11
- 0.3388 4 0 ack 40 ------- 1 2.0 0.0 4 11
r 0.340464 5 4 ack 40 ------- 1 2.0 0.0 5 12
+ 0.340464 4 0 ack 40 ------- 1 2.0 0.0 5 12
- 0.340464 4 0 ack 40 ------- 1 2.0 0.0 5 12
r 0.342128 5 4 ack 40 ------- 1 2.0 0.0 6 13
+ 0.342128 4 0 ack 40 ------- 1 2.0 0.0 6 13
- 0.342128 4 0 ack 40 ------- 1 2.0 0.0 6 13
r 0.347168 4 0 ack 40 ------- 1 2.0 0.0 3 10
+ 0.347168 0 4 tcp 1040 ------- 1 0.0 2.0 7 14
- 0.347168 0 4 tcp 1040 ------- 1 0.0 2.0 7 14
+ 0.347168 0 4 tcp 1040 ------- 1 0.0 2.0 8 15
- 0.348 0 4 tcp 1040 ------- 1 0.0 2.0 8 15
r 0.348832 4 0 ack 40 ------- 1 2.0 0.0 4 11
+ 0.348832 0 4 tcp 1040 ------- 1 0.0 2.0 9 16
+ 0.348832 0 4 tcp 1040 ------- 1 0.0 2.0 10 17
- 0.348832 0 4 tcp 1040 ------- 1 0.0 2.0 9 16
- 0.349664 0 4 tcp 1040 ------- 1 0.0 2.0 10 17
r 0.350496 4 0 ack 40 ------- 1 2.0 0.0 5 12
+ 0.350496 0 4 tcp 1040 ------- 1 0.0 2.0 11 18
+ 0.350496 0 4 tcp 1040 ------- 1 0.0 2.0 12 19
- 0.350496 0 4 tcp 1040 ------- 1 0.0 2.0 11 18
- 0.351328 0 4 tcp 1040 ------- 1 0.0 2.0 12 19
r 0.35216 4 0 ack 40 ------- 1 2.0 0.0 6 13
+ 0.35216 0 4 tcp 1040 ------- 1 0.0 2.0 13 20
+ 0.35216 0 4 tcp 1040 ------- 1 0.0 2.0 14 21
- 0.35216 0 4 tcp 1040 ------- 1 0.0 2.0 13 20
- 0.352992 0 4 tcp 1040 ------- 1 0.0 2.0 14 21
r 0.358 0 4 tcp 1040 ------- 1 0.0 2.0 7 14
+ 0.358 4 5 tcp 1040 ------- 1 0.0 2.0 7 14
- 0.358 4 5 tcp 1040 ------- 1 0.0 2.0 7 14
r 0.358832 0 4 tcp 1040 ------- 1 0.0 2.0 8 15
+ 0.358832 4 5 tcp 1040 ------- 1 0.0 2.0 8 15
r 0.359664 0 4 tcp 1040 ------- 1 0.0 2.0 9 16
+ 0.359664 4 5 tcp 1040 ------- 1 0.0 2.0 9 16
- 0.359664 4 5 tcp 1040 ------- 1 0.0 2.0 8 15
r 0.360496 0 4 tcp 1040 ------- 1 0.0 2.0 10 17
+ 0.360496 4 5 tcp 1040 ------- 1 0.0 2.0 10 17
r 0.361328 0 4 tcp 1040 ------- 1 0.0 2.0 11 18
+ 0.361328 4 5 tcp 1040 ------- 1 0.0 2.0 11 18
- 0.361328 4 5 tcp 1040 ------- 1 0.0 2.0 9 16
r 0.36216 0 4 tcp 1040 ------- 1 0.0 2.0 12 19
+ 0.36216 4 5 tcp 1040 ------- 1 0.0 2.0 12 19
r 0.362992 0 4 tcp 1040 ------- 1 0.0 2.0 13 20
+ 0.362992 4 5 tcp 1040 ------- 1 0.0 2.0 13 20
- 0.362992 4 5 tcp 1040 ------- 1 0.0 2.0 10 17
r 0.363824 0 4 tcp 1040 ------- 1 0.0 2.0 14 21
+ 0.363824 4 5 tcp 1040 ------- 1 0.0 2.0 14 21
- 0.364656 4 5 tcp 1040 ------- 1 0.0 2.0 11 18
- 0.36632 4 5 tcp 1040 ------- 1 0.0 2.0 12 19
- 0.367984 4 5 tcp 1040 ------- 1 0.0 2.0 13 20
- 0.369648 4 5 tcp 1040 ------- 1 0.0 2.0 14 21
r 0.379664 4 5 tcp 1040 ------- 1 0.0 2.0 7 14
+ 0.379664 5 2 tcp 1040 ------- 1 0.0 2.0 7 14
- 0.379664 5 2 tcp 1040 ------- 1 0.0 2.0 7 14
r 0.381328 4 5 tcp 1040 ------- 1 0.0 2.0 8 15
+ 0.381328 5 2 tcp 1040 ------- 1 0.0 2.0 8 15
- 0.381328 5 2 tcp 1040 ------- 1 0.0 2.0 8 15
r 0.382992 4 5 tcp 1040 ------- 1 0.0 2.0 9 16
+ 0.382992 5 2 tcp 1040 ------- 1 0.0 2.0 9 16
- 0.382992 5 2 tcp 1040 ------- 1 0.0 2.0 9 16
r 0.384656 4 5 tcp 1040 ------- 1 0.0 2.0 10 17
+ 0.384656 5 2 tcp 1040 ------- 1 0.0 2.0 10 17
- 0.384656 5 2 tcp 1040 ------- 1 0.0 2.0 10 17
r 0.38632 4 5 tcp 1040 ------- 1 0.0 2.0 11 18
+ 0.38632 5 2 tcp 1040 ------- 1 0.0 2.0 11 18
- 0.38632 5 2 tcp 1040 ------- 1 0.0 2.0 11 18
r 0.387984 4 5 tcp 1040 ------- 1 0.0 2.0 12 19
+ 0.387984 5 2 tcp 1040 ------- 1 0.0 2.0 12 19
- 0.387984 5 2 tcp 1040 ------- 1 0.0 2.0 12 19
r 0.389648 4 5 tcp 1040 ------- 1 0.0 2.0 13 20
+ 0.389648 5 2 tcp 1040 ------- 1 0.0 2.0 13 20
- 0.389648 5 2 tcp 1040 ------- 1 0.0 2.0 13 20
r 0.390496 5 2 tcp 1040 ------- 1 0.0 2.0 7 14
+ 0.390496 2 5 ack 40 ------- 1 2.0 0.0 7 22
- 0.390496 2 5 ack 40 ------- 1 2.0 0.0 7 22
r 0.391312 4 5 tcp 1040 ------- 1 0.0 2.0 14 21
+ 0.391312 5 2 tcp 1040 ------- 1 0.0 2.0 14 21
- 0.391312 5 2 tcp 1040 ------- 1 0.0 2.0 14 21
r 0.39216 5 2 tcp 1040 ------- 1 0.0 2.0 8 15
+ 0.39216 2 5 ack 40 ------- 1 2.0 0.0 8 23
- 0.39216 2 5 ack 40 ------- 1 2.0 0.0 8 23
r 0.393824 5 2 tcp 1040 ------- 1 0.0 2.0 9 16
+ 0.393824 2 5 ack 40 ------- 1 2.0 0.0 9 24
- 0.393824 2 5 ack 40 ------- 1 2.0 0.0 9 24
r 0.395488 5 2 tcp 1040 ------- 1 0.0 2.0 10 17
+ 0.395488 2 5 ack 40 ------- 1 2.0 0.0 10 25
- 0.395488 2 5 ack 40 ------- 1 2.0 0.0 10 25
r 0.397152 5 2 tcp 1040 ------- 1 0.0 2.0 11 18
+ 0.397152 2 5 ack 40 ------- 1 2.0 0.0 11 26
- 0.397152 2 5 ack 40 ------- 1 2.0 0.0 11 26
r 0.398816 5 2 tcp 1040 ------- 1 0.0 2.0 12 19
+ 0.398816 2 5 ack 40 ------- 1 2.0 0.0 12 27
- 0.398816 2 5 ack 40 ------- 1 2.0 0.0 12 27
r 0.40048 5 2 tcp 1040 ------- 1 0.0 2.0 13 20
+ 0.40048 2 5 ack 40 ------- 1 2.0 0.0 13 28
- 0.40048 2 5 ack 40 ------- 1 2.0 0.0 13 28
r 0.400528 2 5 ack 40 ------- 1 2.0 0.0 7 22
+ 0.400528 5 4 ack 40 ------- 1 2.0 0.0 7 22
- 0.400528 5 4 ack 40 ------- 1 2.0 0.0 7 22
r 0.402144 5 2 tcp 1040 ------- 1 0.0 2.0 14 21
+ 0.402144 2 5 ack 40 ------- 1 2.0 0.0 14 29
- 0.402144 2 5 ack 40 ------- 1 2.0 0.0 14 29
r 0.402192 2 5 ack 40 ------- 1 2.0 0.0 8 23
+ 0.402192 5 4 ack 40 ------- 1 2.0 0.0 8 23
- 0.402192 5 4 ack 40 ------- 1 2.0 0.0 8 23
r 0.403856 2 5 ack 40 ------- 1 2.0 0.0 9 24
+ 0.403856 5 4 ack 40 ------- 1 2.0 0.0 9 24
- 0.403856 5 4 ack 40 ------- 1 2.0 0.0 9 24
r 0.40552 2 5 ack 40 ------- 1 2.0 0.0 10 25
+ 0.40552 5 4 ack 40 ------- 1 2.0 0.0 10 25
- 0.40552 5 4 ack 40 ------- 1 2.0 0.0 10 25
r 0.407184 2 5 ack 40 ------- 1 2.0 0.0 11 26
+ 0.407184 5 4 ack 40 ------- 1 2.0 0.0 11 26
- 0.407184 5 4 ack 40 ------- 1 2.0 0.0 11 26
r 0.408848 2 5 ack 40 ------- 1 2.0 0.0 12 27
+ 0.408848 5 4 ack 40 ------- 1 2.0 0.0 12 27
- 0.408848 5 4 ack 40 ------- 1 2.0 0.0 12 27
r 0.410512 2 5 ack 40 ------- 1 2.0 0.0 13 28
+ 0.410512 5 4 ack 40 ------- 1 2.0 0.0 13 28
- 0.410512 5 4 ack 40 ------- 1 2.0 0.0 13 28
r 0.412176 2 5 ack 40 ------- 1 2.0 0.0 14 29
+ 0.412176 5 4 ack 40 ------- 1 2.0 0.0 14 29
- 0.412176 5 4 ack 40 ------- 1 2.0 0.0 14 29
r 0.420592 5 4 ack 40 ------- 1 2.0 0.0 7 22
+ 0.420592 4 0 ack 40 ------- 1 2.0 0.0 7 22
- 0.420592 4 0 ack 40 ------- 1 2.0 0.0 7 22
r 0.422256 5 4 ack 40 ------- 1 2.0 0.0 8 23
+ 0.422256 4 0 ack 40 ------- 1 2.0 0.0 8 23
- 0.422256 4 0 ack 40 ------- 1 2.0 0.0 8 23
r 0.42392 5 4 ack 40 ------- 1 2.0 0.0 9 24
+ 0.42392 4 0 ack 40 ------- 1 2.0 0.0 9 24
- 0.42392 4 0 ack 40 ------- 1 2.0 0.0 9 24
r 0.425584 5 4 ack 40 ------- 1 2.0 0.0 10 25
+ 0.425584 4 0 ack 40 ------- 1 2.0 0.0 10 25
- 0.425584 4 0 ack 40 ------- 1 2.0 0.0 10 25
r 0.427248 5 4 ack 40 ------- 1 2.0 0.0 11 26
+ 0.427248 4 0 ack 40 ------- 1 2.0 0.0 11 26
- 0.427248 4 0 ack 40 ------- 1 2.0 0.0 11 26
r 0.428912 5 4 ack 40 ------- 1 2.0 0.0 12 27
+ 0.428912 4 0 ack 40 ------- 1 2.0 0.0 12 27
- 0.428912 4 0 ack 40 ------- 1 2.0 0.0 12 27
r 0.430576 5 4 ack 40 ------- 1 2.0 0.0 13 28
+ 0.430576 4 0 ack 40 ------- 1 2.0 0.0 13 28
- 0.430576 4 0 ack 40 ------- 1 2.0 0.0 13 28
r 0.430624 4 0 ack 40 ------- 1 2.0 0.0 7 22
+ 0.430624 0 4 tcp 1040 ------- 1 0.0 2.0 15 30
- 0.430624 0 4 tcp 1040 ------- 1 0.0 2.0 15 30
+ 0.430624 0 4 tcp 1040 ------- 1 0.0 2.0 16 31
- 0.431456 0 4 tcp 1040 ------- 1 0.0 2.0 16 31
r 0.43224 5 4 ack 40 ------- 1 2.0 0.0 14 29
+ 0.43224 4 0 ack 40 ------- 1 2.0 0.0 14 29
- 0.43224 4 0 ack 40 ------- 1 2.0 0.0 14 29
r 0.432288 4 0 ack 40 ------- 1 2.0 0.0 8 23
+ 0.432288 0 4 tcp 1040 ------- 1 0.0 2.0 17 32
+ 0.432288 0 4 tcp 1040 ------- 1 0.0 2.0 18 33
- 0.432288 0 4 tcp 1040 ------- 1 0.0 2.0 17 32
- 0.43312 0 4 tcp 1040 ------- 1 0.0 2.0 18 33
r 0.433952 4 0 ack 40 ------- 1 2.0 0.0 9 24
+ 0.433952 0 4 tcp 1040 ------- 1 0.0 2.0 19 34
+ 0.433952 0 4 tcp 1040 ------- 1 0.0 2.0 20 35
- 0.433952 0 4 tcp 1040 ------- 1 0.0 2.0 19 34
- 0.434784 0 4 tcp 1040 ------- 1 0.0 2.0 20 35
r 0.435616 4 0 ack 40 ------- 1 2.0 0.0 10 25
+ 0.435616 0 4 tcp 1040 ------- 1 0.0 2.0 21 36
+ 0.435616 0 4 tcp 1040 ------- 1 0.0 2.0 22 37
- 0.435616 0 4 tcp 1040 ------- 1 0.0 2.0 21 36
- 0.436448 0 4 tcp 1040 ------- 1 0.0 2.0 22 37
r 0.43728 4 0 ack 40 ------- 1 2.0 0.0 11 26
+ 0.43728 0 4 tcp 1040 ------- 1 0.0 2.0 23 38
+ 0.43728 0 4 tcp 1040 ------- 1 0.0 2.0 24 39
- 0.43728 0 4 tcp 1040 ------- 1 0.0 2.0 23 38
- 0.438112 0 4 tcp 1040 ------- 1 0.0 2.0 24 39
r 0.438944 4 0 ack 40 ------- 1 2.0 0.0 12 27
+ 0.438944 0 4 tcp 1040 ------- 1 0.0 2.0 25 40
+ 0.438944 0 4 tcp 1040 ------- 1 0.0 2.0 26 41
- 0.438944 0 4 tcp 1040 ------- 1 0.0 2.0 25 40
- 0.439776 0 4 tcp 1040 ------- 1 0.0 2.0 26 41
r 0.440608 4 0 ack 40 ------- 1 2.0 0.0 13 28
+ 0.440608 0 4 tcp 1040 ------- 1 0.0 2.0 27 42
+ 0.440608 0 4 tcp 1040 ------- 1 0.0 2.0 28 43
- 0.440608 0 4 tcp 1040 ------- 1 0.0 2.0 27 42
- 0.44144 0 4 tcp 1040 ------- 1 0.0 2.0 28 43
r 0.441456 0 4 tcp 1040 ------- 1 0.0 2.0 15 30
+ 0.441456 4 5 tcp 1040 ------- 1 0.0 2.0 15 30
- 0.441456 4 5 tcp 1040 ------- 1 0.0 2.0 15 30
r 0.442272 4 0 ack 40 ------- 1 2.0 0.0 14 29
+ 0.442272 0 4 tcp 1040 ------- 1 0.0 2.0 29 44
+ 0.442272 0 4 tcp 1040 ------- 1 0.0 2.0 30 45
- 0.442272 0 4 tcp 1040 ------- 1 0.0 2.0 29 44
r 0.442288 0 4 tcp 1040 ------- 1 0.0 2.0 16 31
+ 0.442288 4 5 tcp 1040 ------- 1 0.0 2.0 16 31
- 0.443104 0 4 tcp 1040 ------- 1 0.0 2.0 30 45
r 0.44312 0 4 tcp 1040 ------- 1 0.0 2.0 17 32
+ 0.44312 4 5 tcp 1040 ------- 1 0.0 2.0 17 32
- 0.44312 4 5 tcp 1040 ------- 1 0.0 2.0 16 31
r 0.443952 0 4 tcp 1040 ------- 1 0.0 2.0 18 33
+ 0.443952 4 5 tcp 1040 ------- 1 0.0 2.0 18 33
r 0.444784 0 4 tcp 1040 ------- 1 0.0 2.0 19 34
+ 0.444784 4 5 tcp 1040 ------- 1 0.0 2.0 19 34
- 0.444784 4 5 tcp 1040 ------- 1 0.0 2.0 17 32
r 0.445616 0 4 tcp 1040 ------- 1 0.0 2.0 20 35
+ 0.445616 4 5 tcp 1040 ------- 1 0.0 2.0 20 35
r 0.446448 0 4 tcp 1040 ------- 1 0.0 2.0 21 36
+ 0.446448 4 5 tcp 1040 ------- 1 0.0 2.0 21 36
- 0.446448 4 5 tcp 1040 ------- 1 0.0 2.0 18 33
r 0.44728 0 4 tcp 1040 ------- 1 0.0 2.0 22 37
+ 0.44728 4 5 tcp 1040 ------- 1 0.0 2.0 22 37
r 0.448112 0 4 tcp 1040 ------- 1 0.0 2.0 23 38
+ 0.448112 4 5 tcp 1040 ------- 1 0.0 2.0 23 38
- 0.448112 4 5 tcp 1040 ------- 1 0.0 2.0 19 34
r 0.448944 0 4 tcp 1040 ------- 1 0.0 2.0 24 39
+ 0.448944 4 5 tcp 1040 ------- 1 0.0 2.0 24 39
r 0.449776 0 4 tcp 1040 ------- 1 0.0 2.0 25 40
+ 0.449776 4 5 tcp 1040 ------- 1 0.0 2.0 25 40
- 0.449776 4 5 tcp 1040 ------- 1 0.0 2.0 20 35
r 0.450608 0 4 tcp 1040 ------- 1 0.0 2.0 26 41
+ 0.450608 4 5 tcp 1040 ------- 1 0.0 2.0 26 41
r 0.45144 0 4 tcp 1040 ------- 1 0.0 2.0 27 42
+ 0.45144 4 5 tcp 1040 ------- 1 0.0 2.0 27 42
- 0.45144 4 5 tcp 1040 ------- 1 0.0 2.0 21 36
r 0.452272 0 4 tcp 1040 ------- 1 0.0 2.0 28 43
+ 0.452272 4 5 tcp 1040 ------- 1 0.0 2.0 28 43
r 0.453104 0 4 tcp 1040 ------- 1 0.0 2.0 29 44
+ 0.453104 4 5 tcp 1040 ------- 1 0.0 2.0 29 44
- 0.453104 4 5 tcp 1040 ------- 1 0.0 2.0 22 37
r 0.453936 0 4 tcp 1040 ------- 1 0.0 2.0 30 45
+ 0.453936 4 5 tcp 1040 ------- 1 0.0 2.0 30 45
- 0.454768 4 5 tcp 1040 ------- 1 0.0 2.0 23 38
- 0.456432 4 5 tcp 1040 ------- 1 0.0 2.0 24 39
- 0.458096 4 5 tcp 1040 ------- 1 0.0 2.0 25 40
- 0.45976 4 5 tcp 1040 ------- 1 0.0 2.0 26 41
- 0.461424 4 5 tcp 1040 ------- 1 0.0 2.0 27 42
- 0.463088 4 5 tcp 1040 ------- 1 0.0 2.0 28 43
r 0.46312 4 5 tcp 1040 ------- 1 0.0 2.0 15 30
+ 0.46312 5 2 tcp 1040 ------- 1 0.0 2.0 15 30
- 0.46312 5 2 tcp 1040 ------- 1 0.0 2.0 15 30
- 0.464752 4 5 tcp 1040 ------- 1 0.0 2.0 29 44
r 0.464784 4 5 tcp 1040 ------- 1 0.0 2.0 16 31
+ 0.464784 5 2 tcp 1040 ------- 1 0.0 2.0 16 31
- 0.464784 5 2 tcp 1040 ------- 1 0.0 2.0 16 31
- 0.466416 4 5 tcp 1040 ------- 1 0.0 2.0 30 45
r 0.466448 4 5 tcp 1040 ------- 1 0.0 2.0 17 32
+ 0.466448 5 2 tcp 1040 ------- 1 0.0 2.0 17 32
- 0.466448 5 2 tcp 1040 ------- 1 0.0 2.0 17 32
r 0.468112 4 5 tcp 1040 ------- 1 0.0 2.0 18 33
+ 0.468112 5 2 tcp 1040 ------- 1 0.0 2.0 18 33
- 0.468112 5 2 tcp 1040 ------- 1 0.0 2.0 18 33
r 0.469776 4 5 tcp 1040 ------- 1 0.0 2.0 19 34
+ 0.469776 5 2 tcp 1040 ------- 1 0.0 2.0 19 34
- 0.469776 5 2 tcp 1040 ------- 1 0.0 2.0 19 34
r 0.47144 4 5 tcp 1040 ------- 1 0.0 2.0 20 35
+ 0.47144 5 2 tcp 1040 ------- 1 0.0 2.0 20 35
- 0.47144 5 2 tcp 1040 ------- 1 0.0 2.0 20 35
r 0.473104 4 5 tcp 1040 ------- 1 0.0 2.0 21 36
+ 0.473104 5 2 tcp 1040 ------- 1 0.0 2.0 21 36
- 0.473104 5 2 tcp 1040 ------- 1 0.0 2.0 21 36
r 0.473952 5 2 tcp 1040 ------- 1 0.0 2.0 15 30
+ 0.473952 2 5 ack 40 ------- 1 2.0 0.0 15 46
- 0.473952 2 5 ack 40 ------- 1 2.0 0.0 15 46
r 0.474768 4 5 tcp 1040 ------- 1 0.0 2.0 22 37
+ 0.474768 5 2 tcp 1040 ------- 1 0.0 2.0 22 37
- 0.474768 5 2 tcp 1040 ------- 1 0.0 2.0 22 37
r 0.475616 5 2 tcp 1040 ------- 1 0.0 2.0 16 31
+ 0.475616 2 5 ack 40 ------- 1 2.0 0.0 16 47
- 0.475616 2 5 ack 40 ------- 1 2.0 0.0 16 47
r 0.476432 4 5 tcp 1040 ------- 1 0.0 2.0 23 38
+ 0.476432 5 2 tcp 1040 ------- 1 0.0 2.0 23 38
- 0.476432 5 2 tcp 1040 ------- 1 0.0 2.0 23 38
r 0.47728 5 2 tcp 1040 ------- 1 0.0 2.0 17 32
+ 0.47728 2 5 ack 40 ------- 1 2.0 0.0 17 48
- 0.47728 2 5 ack 40 ------- 1 2.0 0.0 17 48
r 0.478096 4 5 tcp 1040 ------- 1 0.0 2.0 24 39
+ 0.478096 5 2 tcp 1040 ------- 1 0.0 2.0 24 39
- 0.478096 5 2 tcp 1040 ------- 1 0.0 2.0 24 39
r 0.478944 5 2 tcp 1040 ------- 1 0.0 2.0 18 33
+ 0.478944 2 5 ack 40 ------- 1 2.0 0.0 18 49
- 0.478944 2 5 ack 40 ------- 1 2.0 0.0 18 49
r 0.47976 4 5 tcp 1040 ------- 1 0.0 2.0 25 40
+ 0.47976 5 2 tcp 1040 ------- 1 0.0 2.0 25 40
- 0.47976 5 2 tcp 1040 ------- 1 0.0 2.0 25 40
r 0.480608 5 2 tcp 1040 ------- 1 0.0 2.0 19 34
+ 0.480608 2 5 ack 40 ------- 1 2.0 0.0 19 50
- 0.480608 2 5 ack 40 ------- 1 2.0 0.0 19 50
r 0.481424 4 5 tcp 1040 ------- 1 0.0 2.0 26 41
+ 0.481424 5 2 tcp 1040 ------- 1 0.0 2.0 26 41
- 0.481424 5 2 tcp 1040 ------- 1 0.0 2.0 26 41
r 0.482272 5 2 tcp 1040 ------- 1 0.0 2.0 20 35
+ 0.482272 2 5 ack 40 ------- 1 2.0 0.0 20 51
- 0.482272 2 5 ack 40 ------- 1 2.0 0.0 20 51
r 0.483088 4 5 tcp 1040 ------- 1 0.0 2.0 27 42
+ 0.483088 5 2 tcp 1040 ------- 1 0.0 2.0 27 42
- 0.483088 5 2 tcp 1040 ------- 1 0.0 2.0 27 42
r 0.483936 5 2 tcp 1040 ------- 1 0.0 2.0 21 36
+ 0.483936 2 5 ack 40 ------- 1 2.0 0.0 21 52
- 0.483936 2 5 ack 40 ------- 1 2.0 0.0 21 52
r 0.483984 2 5 ack 40 ------- 1 2.0 0.0 15 46
+ 0.483984 5 4 ack 40 ------- 1 2.0 0.0 15 46
- 0.483984 5 4 ack 40 ------- 1 2.0 0.0 15 46
r 0.484752 4 5 tcp 1040 ------- 1 0.0 2.0 28 43
+ 0.484752 5 2 tcp 1040 ------- 1 0.0 2.0 28 43
- 0.484752 5 2 tcp 1040 ------- 1 0.0 2.0 28 43
r 0.4856 5 2 tcp 1040 ------- 1 0.0 2.0 22 37
+ 0.4856 2 5 ack 40 ------- 1 2.0 0.0 22 53
- 0.4856 2 5 ack 40 ------- 1 2.0 0.0 22 53
r 0.485648 2 5 ack 40 ------- 1 2.0 0.0 16 47
+ 0.485648 5 4 ack 40 ------- 1 2.0 0.0 16 47
- 0.485648 5 4 ack 40 ------- 1 2.0 0.0 16 47
r 0.486416 4 5 tcp 1040 ------- 1 0.0 2.0 29 44
+ 0.486416 5 2 tcp 1040 ------- 1 0.0 2.0 29 44
- 0.486416 5 2 tcp 1040 ------- 1 0.0 2.0 29 44
r 0.487264 5 2 tcp 1040 ------- 1 0.0 2.0 23 38
+ 0.487264 2 5 ack 40 ------- 1 2.0 0.0 23 54
- 0.487264 2 5 ack 40 ------- 1 2.0 0.0 23 54
r 0.487312 2 5 ack 40 ------- 1 2.0 0.0 17 48
+ 0.487312 5 4 ack 40 ------- 1 2.0 0.0 17 48
- 0.487312 5 4 ack 40 ------- 1 2.0 0.0 17 48
r 0.48808 4 5 tcp 1040 ------- 1 0.0 2.0 30 45
+ 0.48808 5 2 tcp 1040 ------- 1 0.0 2.0 30 45
- 0.48808 5 2 tcp 1040 ------- 1 0.0 2.0 30 45
r 0.488928 5 2 tcp 1040 ------- 1 0.0 2.0 24 39
+ 0.488928 2 5 ack 40 ------- 1 2.0 0.0 24 55
- 0.488928 2 5 ack 40 ------- 1 2.0 0.0 24 55
r 0.488976 2 5 ack 40 ------- 1 2.0 0.0 18 49
+ 0.488976 5 4 ack 40 ------- 1 2.0 0.0 18 49
- 0.488976 5 4 ack 40 ------- 1 2.0 0.0 18 49
r 0.490592 5 2 tcp 1040 ------- 1 0.0 2.0 25 40
+ 0.490592 2 5 ack 40 ------- 1 2.0 0.0 25 56
- 0.490592 2 5 ack 40 ------- 1 2.0 0.0 25 56
r 0.49064 2 5 ack 40 ------- 1 2.0 0.0 19 50
+ 0.49064 5 4 ack 40 ------- 1 2.0 0.0 19 50
- 0.49064 5 4 ack 40 ------- 1 2.0 0.0 19 50
r 0.492256 5 2 tcp 1040 ------- 1 0.0 2.0 26 41
+ 0.492256 2 5 ack 40 ------- 1 2.0 0.0 26 57
- 0.492256 2 5 ack 40 ------- 1 2.0 0.0 26 57
r 0.492304 2 5 ack 40 ------- 1 2.0 0.0 20 51
+ 0.492304 5 4 ack 40 ------- 1 2.0 0.0 20 51
- 0.492304 5 4 ack 40 ------- 1 2.0 0.0 20 51
r 0.49392 5 2 tcp 1040 ------- 1 0.0 2.0 27 42
+ 0.49392 2 5 ack 40 ------- 1 2.0 0.0 27 58
- 0.49392 2 5 ack 40 ------- 1 2.0 0.0 27 58
r 0.493968 2 5 ack 40 ------- 1 2.0 0.0 21 52
+ 0.493968 5 4 ack 40 ------- 1 2.0 0.0 21 52
- 0.493968 5 4 ack 40 ------- 1 2.0 0.0 21 52
r 0.495584 5 2 tcp 1040 ------- 1 0.0 2.0 28 43
+ 0.495584 2 5 ack 40 ------- 1 2.0 0.0 28 59
- 0.495584 2 5 ack 40 ------- 1 2.0 0.0 28 59
r 0.495632 2 5 ack 40 ------- 1 2.0 0.0 22 53
+ 0.495632 5 4 ack 40 ------- 1 2.0 0.0 22 53
- 0.495632 5 4 ack 40 ------- 1 2.0 0.0 22 53
r 0.497248 5 2 tcp 1040 ------- 1 0.0 2.0 29 44
+ 0.497248 2 5 ack 40 ------- 1 2.0 0.0 29 60
- 0.497248 2 5 ack 40 ------- 1 2.0 0.0 29 60
r 0.497296 2 5 ack 40 ------- 1 2.0 0.0 23 54
+ 0.497296 5 4 ack 40 ------- 1 2.0 0.0 23 54
- 0.497296 5 4 ack 40 ------- 1 2.0 0.0 23 54
r 0.498912 5 2 tcp 1040 ------- 1 0.0 2.0 30 45
+ 0.498912 2 5 ack 40 ------- 1 2.0 0.0 30 61
- 0.498912 2 5 ack 40 ------- 1 2.0 0.0 30 61
r 0.49896 2 5 ack 40 ------- 1 2.0 0.0 24 55
+ 0.49896 5 4 ack 40 ------- 1 2.0 0.0 24 55
- 0.49896 5 4 ack 40 ------- 1 2.0 0.0 24 55
+ 0.5 1 4 tcp 40 ------- 2 1.0 3.0 0 62
- 0.5 1 4 tcp 40 ------- 2 1.0 3.0 0 62
r 0.500624 2 5 ack 40 ------- 1 2.0 0.0 25 56
+ 0.500624 5 4 ack 40 ------- 1 2.0 0.0 25 56
- 0.500624 5 4 ack 40 ------- 1 2.0 0.0 25 56
r 0.502288 2 5 ack 40 ------- 1 2.0 0.0 26 57
+ 0.502288 5 4 ack 40 ------- 1 2.0 0.0 26 57
- 0.502288 5 4 ack 40 ------- 1 2.0 0.0 26 57
r 0.503952 2 5 ack 40 ------- 1 2.0 0.0 27 58
+ 0.503952 5 4 ack 40 ------- 1 2.0 0.0 27 58
- 0.503952 5 4 ack 40 ------- 1 2.0 0.0 27 58
r 0.504048 5 4 ack 40 ------- 1 2.0 0.0 15 46
+ 0.504048 4 0 ack 40 ------- 1 2.0 0.0 15 46
- 0.504048 4 0 ack 40 ------- 1 2.0 0.0 15 46
r 0.505616 2 5 ack 40 ------- 1 2.0 0.0 28 59
+ 0.505616 5 4 ack 40 ------- 1 2.0 0.0 28 59
- 0.505616 5 4 ack 40 ------- 1 2.0 0.0 28 59
r 0.505712 5 4 ack 40 ------- 1 2.0 0.0 16 47
+ 0.505712 4 0 ack 40 ------- 1 2.0 0.0 16 47
- 0.505712 4 0 ack 40 ------- 1 2.0 0.0 16 47
r 0.50728 2 5 ack 40 ------- 1 2.0 0.0 29 60
+ 0.50728 5 4 ack 40 ------- 1 2.0 0.0 29 60
- 0.50728 5 4 ack 40 ------- 1 2.0 0.0 29 60
r 0.507376 5 4 ack 40 ------- 1 2.0 0.0 17 48
+ 0.507376 4 0 ack 40 ------- 1 2.0 0.0 17 48
- 0.507376 4 0 ack 40 ------- 1 2.0 0.0 17 48
r 0.508944 2 5 ack 40 ------- 1 2.0 0.0 30 61
+ 0.508944 5 4 ack 40 ------- 1 2.0 0.0 30 61
- 0.508944 5 4 ack 40 ------- 1 2.0 0.0 30 61
r 0.50904 5 4 ack 40 ------- 1 2.0 0.0 18 49
+ 0.50904 4 0 ack 40 ------- 1 2.0 0.0 18 49
- 0.50904 4 0 ack 40 ------- 1 2.0 0.0 18 49
r 0.510032 1 4 tcp 40 ------- 2 1.0 3.0 0 62
+ 0.510032 4 5 tcp 40 ------- 2 1.0 3.0 0 62
- 0.510032 4 5 tcp 40 ------- 2 1.0 3.0 0 62
r 0.510704 5 4 ack 40 ------- 1 2.0 0.0 19 50
+ 0.510704 4 0 ack 40 ------- 1 2.0 0.0 19 50
- 0.510704 4 0 ack 40 ------- 1 2.0 0.0 19 50
r 0.512368 5 4 ack 40 ------- 1 2.0 0.0 20 51
+ 0.512368 4 0 ack 40 ------- 1 2.0 0.0 20 51
- 0.512368 4 0 ack 40 ------- 1 2.0 0.0 20 51
r 0.514032 5 4 ack 40 ------- 1 2.0 0.0 21 52
+ 0.514032 4 0 ack 40 ------- 1 2.0 0.0 21 52
- 0.514032 4 0 ack 40 ------- 1 2.0 0.0 21 52
r 0.51408 4 0 ack 40 ------- 1 2.0 0.0 15 46
+ 0.51408 0 4 tcp 1040 ------- 1 0.0 2.0 31 63
- 0.51408 0 4 tcp 1040 ------- 1 0.0 2.0 31 63
+ 0.51408 0 4 tcp 1040 ------- 1 0.0 2.0 32 64
- 0.514912 0 4 tcp 1040 ------- 1 0.0 2.0 32 64
r 0.515696 5 4 ack 40 ------- 1 2.0 0.0 22 53
+ 0.515696 4 0 ack 40 ------- 1 2.0 0.0 22 53
- 0.515696 4 0 ack 40 ------- 1 2.0 0.0 22 53
r 0.515744 4 0 ack 40 ------- 1 2.0 0.0 16 47
+ 0.515744 0 4 tcp 1040 ------- 1 0.0 2.0 33 65
+ 0.515744 0 4 tcp 1040 ------- 1 0.0 2.0 34 66
- 0.515744 0 4 tcp 1040 ------- 1 0.0 2.0 33 65
- 0.516576 0 4 tcp 1040 ------- 1 0.0 2.0 34 66
r 0.51736 5 4 ack 40 ------- 1 2.0 0.0 23 54
+ 0.51736 4 0 ack 40 ------- 1 2.0 0.0 23 54
- 0.51736 4 0 ack 40 ------- 1 2.0 0.0 23 54
r 0.517408 4 0 ack 40 ------- 1 2.0 0.0 17 48
+ 0.517408 0 4 tcp 1040 ------- 1 0.0 2.0 35 67
+ 0.517408 0 4 tcp 1040 ------- 1 0.0 2.0 36 68
- 0.517408 0 4 tcp 1040 ------- 1 0.0 2.0 35 67
- 0.51824 0 4 tcp 1040 ------- 1 0.0 2.0 36 68
r 0.519024 5 4 ack 40 ------- 1 2.0 0.0 24 55
+ 0.519024 4 0 ack 40 ------- 1 2.0 0.0 24 55
- 0.519024 4 0 ack 40 ------- 1 2.0 0.0 24 55
r 0.519072 4 0 ack 40 ------- 1 2.0 0.0 18 49
+ 0.519072 0 4 tcp 1040 ------- 1 0.0 2.0 37 69
+ 0.519072 0 4 tcp 1040 ------- 1 0.0 2.0 38 70
- 0.519072 0 4 tcp 1040 ------- 1 0.0 2.0 37 69
- 0.519904 0 4 tcp 1040 ------- 1 0.0 2.0 38 70
r 0.520688 5 4 ack 40 ------- 1 2.0 0.0 25 56
+ 0.520688 4 0 ack 40 ------- 1 2.0 0.0 25 56
- 0.520688 4 0 ack 40 ------- 1 2.0 0.0 25 56
r 0.520736 4 0 ack 40 ------- 1 2.0 0.0 19 50
+ 0.520736 0 4 tcp 1040 ------- 1 0.0 2.0 39 71
- 0.520736 0 4 tcp 1040 ------- 1 0.0 2.0 39 71
r 0.522352 5 4 ack 40 ------- 1 2.0 0.0 26 57
+ 0.522352 4 0 ack 40 ------- 1 2.0 0.0 26 57
- 0.522352 4 0 ack 40 ------- 1 2.0 0.0 26 57
r 0.5224 4 0 ack 40 ------- 1 2.0 0.0 20 51
+ 0.5224 0 4 tcp 1040 ------- 1 0.0 2.0 40 72
- 0.5224 0 4 tcp 1040 ------- 1 0.0 2.0 40 72
r 0.524016 5 4 ack 40 ------- 1 2.0 0.0 27 58
+ 0.524016 4 0 ack 40 ------- 1 2.0 0.0 27 58
- 0.524016 4 0 ack 40 ------- 1 2.0 0.0 27 58
r 0.524064 4 0 ack 40 ------- 1 2.0 0.0 21 52
+ 0.524064 0 4 tcp 1040 ------- 1 0.0 2.0 41 73
- 0.524064 0 4 tcp 1040 ------- 1 0.0 2.0 41 73
r 0.524912 0 4 tcp 1040 ------- 1 0.0 2.0 31 63
+ 0.524912 4 5 tcp 1040 ------- 1 0.0 2.0 31 63
- 0.524912 4 5 tcp 1040 ------- 1 0.0 2.0 31 63
r 0.52568 5 4 ack 40 ------- 1 2.0 0.0 28 59
+ 0.52568 4 0 ack 40 ------- 1 2.0 0.0 28 59
- 0.52568 4 0 ack 40 ------- 1 2.0 0.0 28 59
r 0.525728 4 0 ack 40 ------- 1 2.0 0.0 22 53
+ 0.525728 0 4 tcp 1040 ------- 1 0.0 2.0 42 74
- 0.525728 0 4 tcp 1040 ------- 1 0.0 2.0 42 74
r 0.525744 0 4 tcp 1040 ------- 1 0.0 2.0 32 64
+ 0.525744 4 5 tcp 1040 ------- 1 0.0 2.0 32 64
- 0.526576 4 5 tcp 1040 ------- 1 0.0 2.0 32 64
r 0.526576 0 4 tcp 1040 ------- 1 0.0 2.0 33 65
+ 0.526576 4 5 tcp 1040 ------- 1 0.0 2.0 33 65
r 0.527344 5 4 ack 40 ------- 1 2.0 0.0 29 60
+ 0.527344 4 0 ack 40 ------- 1 2.0 0.0 29 60
- 0.527344 4 0 ack 40 ------- 1 2.0 0.0 29 60
r 0.527392 4 0 ack 40 ------- 1 2.0 0.0 23 54
+ 0.527392 0 4 tcp 1040 ------- 1 0.0 2.0 43 75
- 0.527392 0 4 tcp 1040 ------- 1 0.0 2.0 43 75
r 0.527408 0 4 tcp 1040 ------- 1 0.0 2.0 34 66
+ 0.527408 4 5 tcp 1040 ------- 1 0.0 2.0 34 66
- 0.52824 4 5 tcp 1040 ------- 1 0.0 2.0 33 65
r 0.52824 0 4 tcp 1040 ------- 1 0.0 2.0 35 67
+ 0.52824 4 5 tcp 1040 ------- 1 0.0 2.0 35 67
r 0.529008 5 4 ack 40 ------- 1 2.0 0.0 30 61
+ 0.529008 4 0 ack 40 ------- 1 2.0 0.0 30 61
- 0.529008 4 0 ack 40 ------- 1 2.0 0.0 30 61
r 0.529056 4 0 ack 40 ------- 1 2.0 0.0 24 55
+ 0.529056 0 4 tcp 1040 ------- 1 0.0 2.0 44 76
- 0.529056 0 4 tcp 1040 ------- 1 0.0 2.0 44 76
r 0.529072 0 4 tcp 1040 ------- 1 0.0 2.0 36 68
+ 0.529072 4 5 tcp 1040 ------- 1 0.0 2.0 36 68
- 0.529904 4 5 tcp 1040 ------- 1 0.0 2.0 34 66
r 0.529904 0 4 tcp 1040 ------- 1 0.0 2.0 37 69
+ 0.529904 4 5 tcp 1040 ------- 1 0.0 2.0 37 69
r 0.530096 4 5 tcp 40 ------- 2 1.0 3.0 0 62
+ 0.530096 5 3 tcp 40 ------- 2 1.0 3.0 0 62
- 0.530096 5 3 tcp 40 ------- 2 1.0 3.0 0 62
r 0.53072 4 0 ack 40 ------- 1 2.0 0.0 25 56
+ 0.53072 0 4 tcp 1040 ------- 1 0.0 2.0 45 77
- 0.53072 0 4 tcp 1040 ------- 1 0.0 2.0 45 77
r 0.530736 0 4 tcp 1040 ------- 1 0.0 2.0 38 70
+ 0.530736 4 5 tcp 1040 ------- 1 0.0 2.0 38 70
- 0.531568 4 5 tcp 1040 ------- 1 0.0 2.0 35 67
r 0.531568 0 4 tcp 1040 ------- 1 0.0 2.0 39 71
+ 0.531568 4 5 tcp 1040 ------- 1 0.0 2.0 39 71
r 0.532384 4 0 ack 40 ------- 1 2.0 0.0 26 57
+ 0.532384 0 4 tcp 1040 ------- 1 0.0 2.0 46 78
- 0.532384 0 4 tcp 1040 ------- 1 0.0 2.0 46 78
r 0.533232 0 4 tcp 1040 ------- 1 0.0 2.0 40 72
+ 0.533232 4 5 tcp 1040 ------- 1 0.0 2.0 40 72
- 0.533232 4 5 tcp 1040 ------- 1 0.0 2.0 36 68
r 0.534048 4 0 ack 40 ------- 1 2.0 0.0 27 58
+ 0.534048 0 4 tcp 1040 ------- 1 0.0 2.0 47 79
- 0.534048 0 4 tcp 1040 ------- 1 0.0 2.0 47 79
r 0.534896 0 4 tcp 1040 ------- 1 0.0 2.0 41 73
+ 0.534896 4 5 tcp 1040 ------- 1 0.0 2.0 41 73
- 0.534896 4 5 tcp 1040 ------- 1 0.0 2.0 37 69
r 0.535712 4 0 ack 40 ------- 1 2.0 0.0 28 59
+ 0.535712 0 4 tcp 1040 ------- 1 0.0 2.0 48 80
- 0.535712 0 4 tcp 1040 ------- 1 0.0 2.0 48 80
r 0.53656 0 4 tcp 1040 ------- 1 0.0 2.0 42 74
+ 0.53656 4 5 tcp 1040 ------- 1 0.0 2.0 42 74
- 0.53656 4 5 tcp 1040 ------- 1 0.0 2.0 38 70
r 0.537376 4 0 ack 40 ------- 1 2.0 0.0 29 60
+ 0.537376 0 4 tcp 1040 ------- 1 0.0 2.0 49 81
- 0.537376 0 4 tcp 1040 ------- 1 0.0 2.0 49 81
r 0.538224 0 4 tcp 1040 ------- 1 0.0 2.0 43 75
+ 0.538224 4 5 tcp 1040 ------- 1 0.0 2.0 43 75
- 0.538224 4 5 tcp 1040 ------- 1 0.0 2.0 39 71
r 0.53904 4 0 ack 40 ------- 1 2.0 0.0 30 61
+ 0.53904 0 4 tcp 1040 ------- 1 0.0 2.0 50 82
- 0.53904 0 4 tcp 1040 ------- 1 0.0 2.0 50 82
r 0.539888 0 4 tcp 1040 ------- 1 0.0 2.0 44 76
+ 0.539888 4 5 tcp 1040 ------- 1 0.0 2.0 44 76
- 0.539888 4 5 tcp 1040 ------- 1 0.0 2.0 40 72
r 0.540128 5 3 tcp 40 ------- 2 1.0 3.0 0 62
+ 0.540128 3 5 ack 40 ------- 2 3.0 1.0 0 83